 Entering Link 1 = C:\G09W\l1.exe PID=      6408.
  
 Copyright (c) 1988,1990,1992,1993,1995,1998,2003,2009, Gaussian, Inc.
                  All Rights Reserved.
  
 This is part of the Gaussian(R) 09 program.  It is based on
 the Gaussian(R) 03 system (copyright 2003, Gaussian, Inc.),
 the Gaussian(R) 98 system (copyright 1998, Gaussian, Inc.),
 the Gaussian(R) 94 system (copyright 1995, Gaussian, Inc.),
 the Gaussian 92(TM) system (copyright 1992, Gaussian, Inc.),
 the Gaussian 90(TM) system (copyright 1990, Gaussian, Inc.),
 the Gaussian 88(TM) system (copyright 1988, Gaussian, Inc.),
 the Gaussian 86(TM) system (copyright 1986, Carnegie Mellon
 University), and the Gaussian 82(TM) system (copyright 1983,
 Carnegie Mellon University). Gaussian is a federally registered
 trademark of Gaussian, Inc.
  
 This software contains proprietary and confidential information,
 including trade secrets, belonging to Gaussian, Inc.
  
 This software is provided under written license and may be
 used, copied, transmitted, or stored only in accord with that
 written license.
  
 The following legend is applicable only to US Government
 contracts under FAR:
  
                    RESTRICTED RIGHTS LEGEND
  
 Use, reproduction and disclosure by the US Government is
 subject to restrictions as set forth in subparagraphs (a)
 and (c) of the Commercial Computer Software - Restricted
 Rights clause in FAR 52.227-19.
  
 Gaussian, Inc.
 340 Quinnipiac St., Bldg. 40, Wallingford CT 06492
  
  
 ---------------------------------------------------------------
 Warning -- This program may not be used in any manner that
 competes with the business of Gaussian, Inc. or will provide
 assistance to any competitor of Gaussian, Inc.  The licensee
 of this program is prohibited from giving any competitor of
 Gaussian, Inc. access to this program.  By using this program,
 the user acknowledges that Gaussian, Inc. is engaged in the
 business of creating and licensing software in the field of
 computational chemistry and represents and warrants to the
 licensee that it is not a competitor of Gaussian, Inc. and that
 it will not use this program in any manner prohibited above.
 ---------------------------------------------------------------
  

 Cite this work as:
 Gaussian 09, Revision A.02,
 M. J. Frisch, G. W. Trucks, H. B. Schlegel, G. E. Scuseria, 
 M. A. Robb, J. R. Cheeseman, G. Scalmani, V. Barone, B. Mennucci, 
 G. A. Petersson, H. Nakatsuji, M. Caricato, X. Li, H. P. Hratchian, 
 A. F. Izmaylov, J. Bloino, G. Zheng, J. L. Sonnenberg, M. Hada, 
 M. Ehara, K. Toyota, R. Fukuda, J. Hasegawa, M. Ishida, T. Nakajima, 
 Y. Honda, O. Kitao, H. Nakai, T. Vreven, J. A. Montgomery, Jr., 
 J. E. Peralta, F. Ogliaro, M. Bearpark, J. J. Heyd, E. Brothers, 
 K. N. Kudin, V. N. Staroverov, R. Kobayashi, J. Normand, 
 K. Raghavachari, A. Rendell, J. C. Burant, S. S. Iyengar, J. Tomasi, 
 M. Cossi, N. Rega, J. M. Millam, M. Klene, J. E. Knox, J. B. Cross, 
 V. Bakken, C. Adamo, J. Jaramillo, R. Gomperts, R. E. Stratmann, 
 O. Yazyev, A. J. Austin, R. Cammi, C. Pomelli, J. W. Ochterski, 
 R. L. Martin, K. Morokuma, V. G. Zakrzewski, G. A. Voth, 
 P. Salvador, J. J. Dannenberg, S. Dapprich, A. D. Daniels, 
 O. Farkas, J. B. Foresman, J. V. Ortiz, J. Cioslowski, 
 and D. J. Fox, Gaussian, Inc., Wallingford CT, 2009.
 
 ******************************************
 Gaussian 09:  IA32W-G09RevA.02 11-Jun-2009
                10-May-2023 
 ******************************************
 %chk=D:\homework2\Problem3\4-31G.chk
 -------------------
 # hf/4-31g opt freq
 -------------------
 1/18=20,19=15,38=1/1,3;
 2/9=110,12=2,17=6,18=5,40=1/2;
 3/5=1,11=9,16=1,25=1,30=1,71=1/1,2,3;
 4//1;
 5/5=2,38=5/2;
 6/7=2,8=2,9=2,10=2,28=1/1;
 7//1,2,3,16;
 1/18=20,19=15/3(2);
 2/9=110/2;
 99//99;
 2/9=110/2;
 3/5=1,11=9,16=1,25=1,30=1,71=1/1,2,3;
 4/5=5,16=3/1;
 5/5=2,38=5/2;
 7//1,2,3,16;
 1/18=20,19=15/3(-5);
 2/9=110/2;
 6/7=2,8=2,9=2,10=2,19=2,28=1/1;
 99/9=1/99;
 -------------------
 Title Card Required
 -------------------
 Symbolic Z-matrix:
 Charge =  0 Multiplicity = 1
 O                    -2.65823  -3.92405   0. 
 H                    -1.69823  -3.92405   0. 
 H                    -2.97868  -3.01911   0. 
 

 GradGradGradGradGradGradGradGradGradGradGradGradGradGradGradGradGradGrad
 Berny optimization.
 Initialization pass.
                           ----------------------------
                           !    Initial Parameters    !
                           ! (Angstroms and Degrees)  !
 --------------------------                            --------------------------
 ! Name  Definition              Value          Derivative Info.                !
 --------------------------------------------------------------------------------
 ! R1    R(1,2)                  0.96           estimate D2E/DX2                !
 ! R2    R(1,3)                  0.96           estimate D2E/DX2                !
 ! A1    A(2,1,3)              109.5            estimate D2E/DX2                !
 --------------------------------------------------------------------------------
 Trust Radius=3.00D-01 FncErr=1.00D-07 GrdErr=1.00D-07
 Number of steps in this run=  20 maximum allowed number of steps= 100.
 GradGradGradGradGradGradGradGradGradGradGradGradGradGradGradGradGradGrad

                          Input orientation:                          
 ---------------------------------------------------------------------
 Center     Atomic      Atomic             Coordinates (Angstroms)
 Number     Number       Type             X           Y           Z
 ---------------------------------------------------------------------
      1          8           0       -2.658228   -3.924051    0.000000
      2          1           0       -1.698228   -3.924051    0.000000
      3          1           0       -2.978682   -3.019115    0.000000
 ---------------------------------------------------------------------
                    Distance matrix (angstroms):
                    1          2          3
     1  O    0.000000
     2  H    0.960000   0.000000
     3  H    0.960000   1.567952   0.000000
 Stoichiometry    H2O
 Framework group  C2V[C2(O),SGV(H2)]
 Deg. of freedom     2
 Full point group                 C2V     NOp   4
 Largest Abelian subgroup         C2V     NOp   4
 Largest concise Abelian subgroup C2      NOp   2
                         Standard orientation:                         
 ---------------------------------------------------------------------
 Center     Atomic      Atomic             Coordinates (Angstroms)
 Number     Number       Type             X           Y           Z
 ---------------------------------------------------------------------
      1          8           0        0.000000    0.000000    0.110812
      2          1           0        0.000000    0.783976   -0.443248
      3          1           0        0.000000   -0.783976   -0.443248
 ---------------------------------------------------------------------
 Rotational constants (GHZ):    919.6759643    407.9403261    282.5913749
 Standard basis: 4-31G (6D, 7F)
 There are     7 symmetry adapted basis functions of A1  symmetry.
 There are     0 symmetry adapted basis functions of A2  symmetry.
 There are     2 symmetry adapted basis functions of B1  symmetry.
 There are     4 symmetry adapted basis functions of B2  symmetry.
 Integral buffers will be    262144 words long.
 Raffenetti 1 integral format.
 Two-electron integral symmetry is turned on.
    13 basis functions,    28 primitive gaussians,    13 cartesian basis functions
     5 alpha electrons        5 beta electrons
       nuclear repulsion energy         9.1571159843 Hartrees.
 NAtoms=    3 NActive=    3 NUniq=    2 SFac= 1.69D+00 NAtFMM=   80 NAOKFM=F Big=F
 One-electron integrals computed using PRISM.
 NBasis=    13 RedAO= T  NBF=     7     0     2     4
 NBsUse=    13 1.00D-06 NBFU=     7     0     2     4
 Harris functional with IExCor=  205 diagonalized for initial guess.
 ExpMin= 1.61D-01 ExpMax= 8.83D+02 ExpMxC= 8.83D+02 IAcc=1 IRadAn=         1 AccDes= 0.00D+00
 HarFok:  IExCor=  205 AccDes= 0.00D+00 IRadAn=         1 IDoV= 1
 ScaDFX=  1.000000  1.000000  1.000000  1.000000
 FoFCou: FMM=F IPFlag=           0 FMFlag=      100000 FMFlg1=           0
         NFxFlg=           0 DoJE=T BraDBF=F KetDBF=T FulRan=T
         Omega=  0.000000  0.000000  1.000000  0.000000  0.000000 ICntrl=     500 IOpCl=  0
         NMat0=    1 NMatS0=    1 NMatT0=    0 NMatD0=    1 NMtDS0=    0 NMtDT0=    0
         I1Cent=           4 NGrid=           0.
 Petite list used in FoFCou.
 Initial guess orbital symmetries:
       Occupied  (A1) (A1) (B2) (A1) (B1)
       Virtual   (A1) (B2) (A1) (B2) (B1) (A1) (B2) (A1)
 The electronic state of the initial guess is 1-A1.
 Requested convergence on RMS density matrix=1.00D-08 within 128 cycles.
 Requested convergence on MAX density matrix=1.00D-06.
 Requested convergence on             energy=1.00D-06.
 No special actions if energy rises.
 Keep R1 ints in memory in canonical form, NReq=823930.
 SCF Done:  E(RHF) =  -75.9084141332     A.U. after   10 cycles
             Convg  =    0.2926D-08             -V/T =  1.9999

 **********************************************************************

            Population analysis using the SCF density.

 **********************************************************************

 Orbital symmetries:
       Occupied  (A1) (A1) (B2) (A1) (B1)
       Virtual   (A1) (B2) (B2) (A1) (B1) (A1) (B2) (A1)
 The electronic state is 1-A1.
 Alpha  occ. eigenvalues --  -20.51572  -1.34523  -0.71424  -0.54832  -0.49682
 Alpha virt. eigenvalues --    0.20883   0.30446   1.09708   1.16379   1.24258
 Alpha virt. eigenvalues --    1.28784   1.45994   1.80911
          Condensed to atoms (all electrons):
              1          2          3
     1  O    8.276538   0.261724   0.261724
     2  H    0.261724   0.367554  -0.029272
     3  H    0.261724  -0.029272   0.367554
 Mulliken atomic charges:
              1
     1  O   -0.799986
     2  H    0.399993
     3  H    0.399993
 Sum of Mulliken atomic charges =   0.00000
 Mulliken charges with hydrogens summed into heavy atoms:
              1
     1  O    0.000000
 Sum of Mulliken charges with hydrogens summed into heavy atoms =   0.00000
 Electronic spatial extent (au):  <R**2>=             19.0223
 Charge=              0.0000 electrons
 Dipole moment (field-independent basis, Debye):
    X=              0.0000    Y=              0.0000    Z=             -2.5219  Tot=              2.5219
 Quadrupole moment (field-independent basis, Debye-Ang):
   XX=             -7.1557   YY=             -3.9560   ZZ=             -6.2105
   XY=              0.0000   XZ=              0.0000   YZ=              0.0000
 Traceless Quadrupole moment (field-independent basis, Debye-Ang):
   XX=             -1.3816   YY=              1.8181   ZZ=             -0.4365
   XY=              0.0000   XZ=              0.0000   YZ=              0.0000
 Octapole moment (field-independent basis, Debye-Ang**2):
  XXX=              0.0000  YYY=              0.0000  ZZZ=             -1.4636  XYY=              0.0000
  XXY=              0.0000  XXZ=             -0.4113  XZZ=              0.0000  YZZ=              0.0000
  YYZ=             -1.3268  XYZ=              0.0000
 Hexadecapole moment (field-independent basis, Debye-Ang**3):
 XXXX=             -5.0215 YYYY=             -5.4153 ZZZZ=             -5.9659 XXXY=              0.0000
 XXXZ=              0.0000 YYYX=              0.0000 YYYZ=              0.0000 ZZZX=              0.0000
 ZZZY=              0.0000 XXYY=             -2.0164 XXZZ=             -1.8698 YYZZ=             -1.6386
 XXYZ=              0.0000 YYXZ=              0.0000 ZZXY=              0.0000
 N-N= 9.157115984281D+00 E-N=-1.988027221520D+02  KE= 7.591230999617D+01
 Symmetry A1   KE= 6.785704909189D+01
 Symmetry A2   KE= 0.000000000000D+00
 Symmetry B1   KE= 4.584201464250D+00
 Symmetry B2   KE= 3.471059440035D+00
 Calling FoFJK, ICntrl=      2127 FMM=F ISym2X=1 I1Cent= 0 IOpClX= 0 NMat=1 NMatS=1 NMatT=0.
 ***** Axes restored to original set *****
 -------------------------------------------------------------------
 Center     Atomic                   Forces (Hartrees/Bohr)
 Number     Number              X              Y              Z
 -------------------------------------------------------------------
      1        8           0.007979122    0.011290196    0.000000000
      2        1          -0.008838675   -0.002218083    0.000000000
      3        1           0.000859553   -0.009072113    0.000000000
 -------------------------------------------------------------------
 Cartesian Forces:  Max     0.011290196 RMS     0.006300080

 GradGradGradGradGradGradGradGradGradGradGradGradGradGradGradGradGradGrad
 Berny optimization.
 Internal  Forces:  Max     0.008838675 RMS     0.007581473
 Search for a local minimum.
 Step number   1 out of a maximum of   20
 All quantities printed in internal units (Hartrees-Bohrs-Radians)
 Mixed Optimization -- RFO/linear search
 Second derivative matrix not updated -- first step.
 The second derivative matrix:
                          R1        R2        A1
           R1           0.55473
           R2           0.00000   0.55473
           A1           0.00000   0.00000   0.16000
     Eigenvalues ---    0.16000   0.55473   0.55473
 RFO step:  Lambda=-3.82419421D-04 EMin= 1.60000000D-01
 Linear search not attempted -- first point.
 Iteration  1 RMS(Cart)=  0.01308142 RMS(Int)=  0.00017234
 Iteration  2 RMS(Cart)=  0.00019052 RMS(Int)=  0.00000001
 Iteration  3 RMS(Cart)=  0.00000001 RMS(Int)=  0.00000000
 ClnCor:  largest displacement from symmetrization is 2.81D-15 for atom     3.
 Variable       Old X    -DE/DX   Delta X   Delta X   Delta X     New X
                                 (Linear)    (Quad)   (Total)
    R1        1.81414  -0.00884   0.00000  -0.01592  -0.01592   1.79821
    R2        1.81414  -0.00884   0.00000  -0.01592  -0.01592   1.79821
    A1        1.91114   0.00402   0.00000   0.02509   0.02509   1.93622
         Item               Value     Threshold  Converged?
 Maximum Force            0.008839     0.000450     NO 
 RMS     Force            0.007581     0.000300     NO 
 Maximum Displacement     0.015077     0.001800     NO 
 RMS     Displacement     0.013055     0.001200     NO 
 Predicted change in Energy=-1.914273D-04
 GradGradGradGradGradGradGradGradGradGradGradGradGradGradGradGradGradGrad

                          Input orientation:                          
 ---------------------------------------------------------------------
 Center     Atomic      Atomic             Coordinates (Angstroms)
 Number     Number       Type             X           Y           Z
 ---------------------------------------------------------------------
      1          8           0       -2.652589   -3.916072    0.000000
      2          1           0       -1.701090   -3.928009    0.000000
      3          1           0       -2.981459   -3.023134    0.000000
 ---------------------------------------------------------------------
                    Distance matrix (angstroms):
                    1          2          3
     1  O    0.000000
     2  H    0.951574   0.000000
     3  H    0.951574   1.567847   0.000000
 Stoichiometry    H2O
 Framework group  C2V[C2(O),SGV(H2)]
 Deg. of freedom     2
 Full point group                 C2V     NOp   4
 Largest Abelian subgroup         C2V     NOp   4
 Largest concise Abelian subgroup C2      NOp   2
                         Standard orientation:                         
 ---------------------------------------------------------------------
 Center     Atomic      Atomic             Coordinates (Angstroms)
 Number     Number       Type             X           Y           Z
 ---------------------------------------------------------------------
      1          8           0        0.000000    0.000000    0.107881
      2          1           0        0.000000    0.783923   -0.431524
      3          1           0        0.000000   -0.783923   -0.431524
 ---------------------------------------------------------------------
 Rotational constants (GHZ):    970.3251543    407.9950247    287.2248708
 Standard basis: 4-31G (6D, 7F)
 There are     7 symmetry adapted basis functions of A1  symmetry.
 There are     0 symmetry adapted basis functions of A2  symmetry.
 There are     2 symmetry adapted basis functions of B1  symmetry.
 There are     4 symmetry adapted basis functions of B2  symmetry.
 Integral buffers will be    262144 words long.
 Raffenetti 1 integral format.
 Two-electron integral symmetry is turned on.
    13 basis functions,    28 primitive gaussians,    13 cartesian basis functions
     5 alpha electrons        5 beta electrons
       nuclear repulsion energy         9.2352314765 Hartrees.
 NAtoms=    3 NActive=    3 NUniq=    2 SFac= 1.69D+00 NAtFMM=   80 NAOKFM=F Big=F
 One-electron integrals computed using PRISM.
 NBasis=    13 RedAO= T  NBF=     7     0     2     4
 NBsUse=    13 1.00D-06 NBFU=     7     0     2     4
 Initial guess read from the read-write file.
 B after Tr=     0.000000    0.000000    0.000000
         Rot=    1.000000    0.000000    0.000000    0.000000 Ang=   0.00 deg.
 Initial guess orbital symmetries:
       Occupied  (A1) (A1) (B2) (A1) (B1)
       Virtual   (A1) (B2) (B2) (A1) (B1) (A1) (B2) (A1)
 Requested convergence on RMS density matrix=1.00D-08 within 128 cycles.
 Requested convergence on MAX density matrix=1.00D-06.
 Requested convergence on             energy=1.00D-06.
 No special actions if energy rises.
 Keep R1 ints in memory in canonical form, NReq=823930.
 SCF Done:  E(RHF) =  -75.9086318087     A.U. after    9 cycles
             Convg  =    0.1776D-08             -V/T =  1.9995
 Calling FoFJK, ICntrl=      2127 FMM=F ISym2X=1 I1Cent= 0 IOpClX= 0 NMat=1 NMatS=1 NMatT=0.
 ***** Axes restored to original set *****
 -------------------------------------------------------------------
 Center     Atomic                   Forces (Hartrees/Bohr)
 Number     Number              X              Y              Z
 -------------------------------------------------------------------
      1        8           0.001050764    0.001486797    0.000000000
      2        1          -0.001001421   -0.000406968    0.000000000
      3        1          -0.000049344   -0.001079829    0.000000000
 -------------------------------------------------------------------
 Cartesian Forces:  Max     0.001486797 RMS     0.000792437

 GradGradGradGradGradGradGradGradGradGradGradGradGradGradGradGradGradGrad
 Berny optimization.
 Using GEDIIS/GDIIS optimizer.
 Internal  Forces:  Max     0.000996237 RMS     0.000922680
 Search for a local minimum.
 Step number   2 out of a maximum of   20
 All quantities printed in internal units (Hartrees-Bohrs-Radians)
 Mixed Optimization -- En-DIIS/RFO-DIIS
 Update second derivatives using D2CorX and points    1    2
 DE= -2.18D-04 DEPred=-1.91D-04 R= 1.14D+00
 SS=  1.41D+00  RLast= 3.37D-02 DXNew= 5.0454D-01 1.0114D-01
 Trust test= 1.14D+00 RLast= 3.37D-02 DXMaxT set to 3.00D-01
 The second derivative matrix:
                          R1        R2        A1
           R1           0.53588
           R2          -0.01885   0.53588
           A1           0.01554   0.01554   0.15003
 Use linear search instead of GDIIS.
     Eigenvalues ---    0.14872   0.51834   0.55473
 RFO step:  Lambda=-4.92165082D-07 EMin= 1.48723902D-01
 Quartic linear search produced a step of  0.14912.
 Iteration  1 RMS(Cart)=  0.00252717 RMS(Int)=  0.00000616
 Iteration  2 RMS(Cart)=  0.00000658 RMS(Int)=  0.00000000
 Iteration  3 RMS(Cart)=  0.00000000 RMS(Int)=  0.00000000
 ClnCor:  largest displacement from symmetrization is 8.19D-15 for atom     3.
 Variable       Old X    -DE/DX   Delta X   Delta X   Delta X     New X
                                 (Linear)    (Quad)   (Total)
    R1        1.79821  -0.00100  -0.00237   0.00032  -0.00205   1.79616
    R2        1.79821  -0.00100  -0.00237   0.00032  -0.00205   1.79616
    A1        1.93622   0.00075   0.00374   0.00154   0.00528   1.94150
         Item               Value     Threshold  Converged?
 Maximum Force            0.000996     0.000450     NO 
 RMS     Force            0.000923     0.000300     NO 
 Maximum Displacement     0.002762     0.001800     NO 
 RMS     Displacement     0.002525     0.001200     NO 
 Predicted change in Energy=-4.139791D-06
 GradGradGradGradGradGradGradGradGradGradGradGradGradGradGradGradGradGrad

                          Input orientation:                          
 ---------------------------------------------------------------------
 Center     Atomic      Atomic             Coordinates (Angstroms)
 Number     Number       Type             X           Y           Z
 ---------------------------------------------------------------------
      1          8           0       -2.651556   -3.914611    0.000000
      2          1           0       -1.701178   -3.929043    0.000000
      3          1           0       -2.982404   -3.023562    0.000000
 ---------------------------------------------------------------------
                    Distance matrix (angstroms):
                    1          2          3
     1  O    0.000000
     2  H    0.950488   0.000000
     3  H    0.950488   1.568895   0.000000
 Stoichiometry    H2O
 Framework group  C2V[C2(O),SGV(H2)]
 Deg. of freedom     2
 Full point group                 C2V     NOp   4
 Largest Abelian subgroup         C2V     NOp   4
 Largest concise Abelian subgroup C2      NOp   2
                         Standard orientation:                         
 ---------------------------------------------------------------------
 Center     Atomic      Atomic             Coordinates (Angstroms)
 Number     Number       Type             X           Y           Z
 ---------------------------------------------------------------------
      1          8           0        0.000000    0.000000    0.107344
      2          1           0        0.000000    0.784448   -0.429376
      3          1           0        0.000000   -0.784448   -0.429376
 ---------------------------------------------------------------------
 Rotational constants (GHZ):    980.0578216    407.4497454    287.7997349
 Standard basis: 4-31G (6D, 7F)
 There are     7 symmetry adapted basis functions of A1  symmetry.
 There are     0 symmetry adapted basis functions of A2  symmetry.
 There are     2 symmetry adapted basis functions of B1  symmetry.
 There are     4 symmetry adapted basis functions of B2  symmetry.
 Integral buffers will be    262144 words long.
 Raffenetti 1 integral format.
 Two-electron integral symmetry is turned on.
    13 basis functions,    28 primitive gaussians,    13 cartesian basis functions
     5 alpha electrons        5 beta electrons
       nuclear repulsion energy         9.2451788302 Hartrees.
 NAtoms=    3 NActive=    3 NUniq=    2 SFac= 1.69D+00 NAtFMM=   80 NAOKFM=F Big=F
 One-electron integrals computed using PRISM.
 NBasis=    13 RedAO= T  NBF=     7     0     2     4
 NBsUse=    13 1.00D-06 NBFU=     7     0     2     4
 Initial guess read from the read-write file.
 B after Tr=     0.000000    0.000000    0.000000
         Rot=    1.000000    0.000000    0.000000    0.000000 Ang=   0.00 deg.
 Initial guess orbital symmetries:
       Occupied  (A1) (A1) (B2) (A1) (B1)
       Virtual   (A1) (B2) (B2) (A1) (B1) (A1) (B2) (A1)
 Requested convergence on RMS density matrix=1.00D-08 within 128 cycles.
 Requested convergence on MAX density matrix=1.00D-06.
 Requested convergence on             energy=1.00D-06.
 No special actions if energy rises.
 Keep R1 ints in memory in canonical form, NReq=823930.
 SCF Done:  E(RHF) =  -75.9086358437     A.U. after    8 cycles
             Convg  =    0.1902D-08             -V/T =  1.9995
 Calling FoFJK, ICntrl=      2127 FMM=F ISym2X=1 I1Cent= 0 IOpClX= 0 NMat=1 NMatS=1 NMatT=0.
 ***** Axes restored to original set *****
 -------------------------------------------------------------------
 Center     Atomic                   Forces (Hartrees/Bohr)
 Number     Number              X              Y              Z
 -------------------------------------------------------------------
      1        8           0.000006135    0.000008680    0.000000000
      2        1          -0.000028017    0.000013292    0.000000000
      3        1           0.000021882   -0.000021973    0.000000000
 -------------------------------------------------------------------
 Cartesian Forces:  Max     0.000028017 RMS     0.000015041

 GradGradGradGradGradGradGradGradGradGradGradGradGradGradGradGradGradGrad
 Berny optimization.
 Using GEDIIS/GDIIS optimizer.
 Internal  Forces:  Max     0.000028215 RMS     0.000026622
 Search for a local minimum.
 Step number   3 out of a maximum of   20
 All quantities printed in internal units (Hartrees-Bohrs-Radians)
 Mixed Optimization -- En-DIIS/RFO-DIIS
 Swaping is turned off.
 Update second derivatives using D2CorX and points    1    2    3
 DE= -4.04D-06 DEPred=-4.14D-06 R= 9.75D-01
 SS=  1.41D+00  RLast= 6.03D-03 DXNew= 5.0454D-01 1.8078D-02
 Trust test= 9.75D-01 RLast= 6.03D-03 DXMaxT set to 3.00D-01
 The second derivative matrix:
                          R1        R2        A1
           R1           0.52956
           R2          -0.02517   0.52956
           A1           0.01284   0.01284   0.15724
     Eigenvalues ---    0.15629   0.50534   0.55473
 En-DIIS/RFO-DIIS IScMMF=        0 using points:     3    2
 RFO step:  Lambda= 0.00000000D+00.
 DIIS coeffs:      0.99924      0.00076
 Iteration  1 RMS(Cart)=  0.00009881 RMS(Int)=  0.00000000
 Iteration  2 RMS(Cart)=  0.00000000 RMS(Int)=  0.00000000
 ClnCor:  largest displacement from symmetrization is 5.18D-15 for atom     3.
 Variable       Old X    -DE/DX   Delta X   Delta X   Delta X     New X
                                  (DIIS)     (GDIIS)  (Total)
    R1        1.79616  -0.00003   0.00000  -0.00005  -0.00005   1.79611
    R2        1.79616  -0.00003   0.00000  -0.00005  -0.00005   1.79611
    A1        1.94150  -0.00002   0.00000  -0.00013  -0.00014   1.94137
         Item               Value     Threshold  Converged?
 Maximum Force            0.000028     0.000450     YES
 RMS     Force            0.000027     0.000300     YES
 Maximum Displacement     0.000107     0.001800     YES
 RMS     Displacement     0.000099     0.001200     YES
 Predicted change in Energy=-3.078015D-09
 Optimization completed.
    -- Stationary point found.
                           ----------------------------
                           !   Optimized Parameters   !
                           ! (Angstroms and Degrees)  !
 --------------------------                            --------------------------
 ! Name  Definition              Value          Derivative Info.                !
 --------------------------------------------------------------------------------
 ! R1    R(1,2)                  0.9505         -DE/DX =    0.0                 !
 ! R2    R(1,3)                  0.9505         -DE/DX =    0.0                 !
 ! A1    A(2,1,3)              111.24           -DE/DX =    0.0                 !
 --------------------------------------------------------------------------------
 GradGradGradGradGradGradGradGradGradGradGradGradGradGradGradGradGradGrad

                          Input orientation:                          
 ---------------------------------------------------------------------
 Center     Atomic      Atomic             Coordinates (Angstroms)
 Number     Number       Type             X           Y           Z
 ---------------------------------------------------------------------
      1          8           0       -2.651556   -3.914611    0.000000
      2          1           0       -1.701178   -3.929043    0.000000
      3          1           0       -2.982404   -3.023562    0.000000
 ---------------------------------------------------------------------
                    Distance matrix (angstroms):
                    1          2          3
     1  O    0.000000
     2  H    0.950488   0.000000
     3  H    0.950488   1.568895   0.000000
 Stoichiometry    H2O
 Framework group  C2V[C2(O),SGV(H2)]
 Deg. of freedom     2
 Full point group                 C2V     NOp   4
 Largest Abelian subgroup         C2V     NOp   4
 Largest concise Abelian subgroup C2      NOp   2
                         Standard orientation:                         
 ---------------------------------------------------------------------
 Center     Atomic      Atomic             Coordinates (Angstroms)
 Number     Number       Type             X           Y           Z
 ---------------------------------------------------------------------
      1          8           0        0.000000    0.000000    0.107344
      2          1           0        0.000000    0.784448   -0.429376
      3          1           0        0.000000   -0.784448   -0.429376
 ---------------------------------------------------------------------
 Rotational constants (GHZ):    980.0578216    407.4497454    287.7997349

 **********************************************************************

            Population analysis using the SCF density.

 **********************************************************************

 Orbital symmetries:
       Occupied  (A1) (A1) (B2) (A1) (B1)
       Virtual   (A1) (B2) (B2) (A1) (B1) (A1) (B2) (A1)
 The electronic state is 1-A1.
 Alpha  occ. eigenvalues --  -20.51245  -1.34828  -0.72258  -0.54638  -0.49648
 Alpha virt. eigenvalues --    0.21149   0.30719   1.11408   1.16597   1.24326
 Alpha virt. eigenvalues --    1.28450   1.46375   1.80577
          Condensed to atoms (all electrons):
              1          2          3
     1  O    8.273879   0.264747   0.264747
     2  H    0.264747   0.362437  -0.028871
     3  H    0.264747  -0.028871   0.362437
 Mulliken atomic charges:
              1
     1  O   -0.803374
     2  H    0.401687
     3  H    0.401687
 Sum of Mulliken atomic charges =   0.00000
 Mulliken charges with hydrogens summed into heavy atoms:
              1
     1  O    0.000000
 Sum of Mulliken charges with hydrogens summed into heavy atoms =   0.00000
 Electronic spatial extent (au):  <R**2>=             18.8855
 Charge=              0.0000 electrons
 Dipole moment (field-independent basis, Debye):
    X=              0.0000    Y=              0.0000    Z=             -2.4859  Tot=              2.4859
 Quadrupole moment (field-independent basis, Debye-Ang):
   XX=             -7.1356   YY=             -3.8964   ZZ=             -6.2444
   XY=              0.0000   XZ=              0.0000   YZ=              0.0000
 Traceless Quadrupole moment (field-independent basis, Debye-Ang):
   XX=             -1.3768   YY=              1.8624   ZZ=             -0.4856
   XY=              0.0000   XZ=              0.0000   YZ=              0.0000
 Octapole moment (field-independent basis, Debye-Ang**2):
  XXX=              0.0000  YYY=              0.0000  ZZZ=             -1.4411  XYY=              0.0000
  XXY=              0.0000  XXZ=             -0.4122  XZZ=              0.0000  YZZ=              0.0000
  YYZ=             -1.3037  XYZ=              0.0000
 Hexadecapole moment (field-independent basis, Debye-Ang**3):
 XXXX=             -5.0001 YYYY=             -5.2814 ZZZZ=             -5.8796 XXXY=              0.0000
 XXXZ=              0.0000 YYYX=              0.0000 YYYZ=              0.0000 ZZZX=              0.0000
 ZZZY=              0.0000 XXYY=             -1.9935 XXZZ=             -1.8475 YYZZ=             -1.6327
 XXYZ=              0.0000 YYXZ=              0.0000 ZZXY=              0.0000
 N-N= 9.245178830213D+00 E-N=-1.990028412297D+02  KE= 7.594755294962D+01
 Symmetry A1   KE= 6.787746791249D+01
 Symmetry A2   KE= 0.000000000000D+00
 Symmetry B1   KE= 4.578975067497D+00
 Symmetry B2   KE= 3.491109969627D+00
 1|1|UNPC-PUB-7-042|FOpt|RHF|4-31G|H2O1|CCLAB|10-May-2023|0||# hf/4-31g
  opt freq||Title Card Required||0,1|O,-2.6515563585,-3.9146105994,0.|H
 ,-1.7011783161,-3.9290428653,0.|H,-2.9824035248,-3.0235624153,0.||Vers
 ion=IA32W-G09RevA.02|State=1-A1|HF=-75.9086358|RMSD=1.902e-009|RMSF=1.
 504e-005|Dipole=0.5644601,0.7986926,0.|Quadrupole=0.8031805,0.2204709,
 -1.0236514,-0.8227605,0.,0.|PG=C02V [C2(O1),SGV(H2)]||@


 A SLIP OF THE FOOT YOU MAY SOON RECOVER, BUT A SLIP OF THE TONGUE
 YOU MAY NEVER GET OVER. -- BEN FRANKLIN
 Job cpu time:  0 days  0 hours  0 minutes  1.0 seconds.
 File lengths (MBytes):  RWF=      5 Int=      0 D2E=      0 Chk=      1 Scr=      1
 Normal termination of Gaussian 09 at Wed May 10 14:25:57 2023.
 Link1:  Proceeding to internal job step number  2.
 --------------------------------------------------------------
 #N Geom=AllCheck Guess=TCheck SCRF=Check GenChk RHF/4-31G Freq
 --------------------------------------------------------------
 1/10=4,29=7,30=1,38=1,40=1/1,3;
 2/12=2,40=1/2;
 3/5=1,11=1,14=-4,16=1,25=1,30=1,70=2,71=2,116=1/1,2,3;
 4/5=101/1;
 5/5=2,98=1/2;
 8/6=4,10=90,11=11/1;
 10/13=10,15=4/2;
 11/6=3,8=1,9=11,15=111,16=1/1,2,10;
 10/6=1/2;
 6/7=2,8=2,9=2,10=2,18=1,28=1/1;
 7/8=1,10=1,25=1/1,2,3,16;
 1/10=4,30=1/3;
 99//99;
 -------------------
 Title Card Required
 -------------------
 Redundant internal coordinates taken from checkpoint file:
 D:\homework2\Problem3\4-31G.chk
 Charge =  0 Multiplicity = 1
 O,0,-2.6515563585,-3.9146105994,0.
 H,0,-1.7011783161,-3.9290428653,0.
 H,0,-2.9824035248,-3.0235624153,0.
 Recover connectivity data from disk.

 GradGradGradGradGradGradGradGradGradGradGradGradGradGradGradGradGradGrad
 Berny optimization.
 Initialization pass.
                           ----------------------------
                           !    Initial Parameters    !
                           ! (Angstroms and Degrees)  !
 --------------------------                            --------------------------
 ! Name  Definition              Value          Derivative Info.                !
 --------------------------------------------------------------------------------
 ! R1    R(1,2)                  0.9505         calculate D2E/DX2 analytically  !
 ! R2    R(1,3)                  0.9505         calculate D2E/DX2 analytically  !
 ! A1    A(2,1,3)              111.24           calculate D2E/DX2 analytically  !
 --------------------------------------------------------------------------------
 Trust Radius=3.00D-01 FncErr=1.00D-07 GrdErr=1.00D-07
 Number of steps in this run=   2 maximum allowed number of steps=   2.
 GradGradGradGradGradGradGradGradGradGradGradGradGradGradGradGradGradGrad

                          Input orientation:                          
 ---------------------------------------------------------------------
 Center     Atomic      Atomic             Coordinates (Angstroms)
 Number     Number       Type             X           Y           Z
 ---------------------------------------------------------------------
      1          8           0       -2.651556   -3.914611    0.000000
      2          1           0       -1.701178   -3.929043    0.000000
      3          1           0       -2.982404   -3.023562    0.000000
 ---------------------------------------------------------------------
                    Distance matrix (angstroms):
                    1          2          3
     1  O    0.000000
     2  H    0.950488   0.000000
     3  H    0.950488   1.568895   0.000000
 Stoichiometry    H2O
 Framework group  C2V[C2(O),SGV(H2)]
 Deg. of freedom     2
 Full point group                 C2V     NOp   4
 Largest Abelian subgroup         C2V     NOp   4
 Largest concise Abelian subgroup C2      NOp   2
                         Standard orientation:                         
 ---------------------------------------------------------------------
 Center     Atomic      Atomic             Coordinates (Angstroms)
 Number     Number       Type             X           Y           Z
 ---------------------------------------------------------------------
      1          8           0        0.000000    0.000000    0.107344
      2          1           0        0.000000    0.784448   -0.429376
      3          1           0        0.000000   -0.784448   -0.429376
 ---------------------------------------------------------------------
 Rotational constants (GHZ):    980.0578216    407.4497454    287.7997349
 Standard basis: 4-31G (6D, 7F)
 There are     7 symmetry adapted basis functions of A1  symmetry.
 There are     0 symmetry adapted basis functions of A2  symmetry.
 There are     2 symmetry adapted basis functions of B1  symmetry.
 There are     4 symmetry adapted basis functions of B2  symmetry.
 Integral buffers will be    262144 words long.
 Raffenetti 1 integral format.
 Two-electron integral symmetry is turned on.
    13 basis functions,    28 primitive gaussians,    13 cartesian basis functions
     5 alpha electrons        5 beta electrons
       nuclear repulsion energy         9.2451788302 Hartrees.
 NAtoms=    3 NActive=    3 NUniq=    2 SFac= 1.69D+00 NAtFMM=   80 NAOKFM=F Big=F
 One-electron integrals computed using PRISM.
 NBasis=    13 RedAO= T  NBF=     7     0     2     4
 NBsUse=    13 1.00D-06 NBFU=     7     0     2     4
 Initial guess read from the checkpoint file:  D:\homework2\Problem3\4-31G.chk
 B after Tr=     0.000000    0.000000    0.000000
         Rot=    1.000000    0.000000    0.000000    0.000000 Ang=   0.00 deg.
 Initial guess orbital symmetries:
       Occupied  (A1) (A1) (B2) (A1) (B1)
       Virtual   (A1) (B2) (B2) (A1) (B1) (A1) (B2) (A1)
 Requested convergence on RMS density matrix=1.00D-08 within 128 cycles.
 Requested convergence on MAX density matrix=1.00D-06.
 Requested convergence on             energy=1.00D-06.
 No special actions if energy rises.
 Keep R1 ints in memory in canonical form, NReq=823930.
 SCF Done:  E(RHF) =  -75.9086358437     A.U. after    1 cycles
             Convg  =    0.1763D-09             -V/T =  1.9995
 Range of M.O.s used for correlation:     1    13
 NBasis=    13 NAE=     5 NBE=     5 NFC=     0 NFV=     0
 NROrb=     13 NOA=     5 NOB=     5 NVA=     8 NVB=     8
          Differentiating once with respect to electric field.
                with respect to dipole field.
          Electric field/nuclear overlap derivatives assumed to be zero.
          Keep R1 ints in memory in canonical form, NReq=804440.
          There are     3 degrees of freedom in the 1st order CPHF.  IDoFFX=0.
      3 vectors produced by pass  0 Test12= 1.33D-15 3.33D-08 XBig12= 1.14D+00 7.92D-01.
 AX will form     3 AO Fock derivatives at one time.
      3 vectors produced by pass  1 Test12= 1.33D-15 3.33D-08 XBig12= 3.40D-02 1.12D-01.
      3 vectors produced by pass  2 Test12= 1.33D-15 3.33D-08 XBig12= 3.44D-03 3.28D-02.
      3 vectors produced by pass  3 Test12= 1.33D-15 3.33D-08 XBig12= 3.96D-05 3.23D-03.
      3 vectors produced by pass  4 Test12= 1.33D-15 3.33D-08 XBig12= 1.77D-07 2.26D-04.
      3 vectors produced by pass  5 Test12= 1.33D-15 3.33D-08 XBig12= 1.18D-09 1.97D-05.
      2 vectors produced by pass  6 Test12= 1.33D-15 3.33D-08 XBig12= 7.06D-12 1.68D-06.
      1 vectors produced by pass  7 Test12= 1.33D-15 3.33D-08 XBig12= 3.11D-14 1.14D-07.
 Inverted reduced A of dimension    21 with in-core refinement.
 End of Minotr Frequency-dependent properties file   721 does not exist.
 End of Minotr Frequency-dependent properties file   722 does not exist.
 Symmetrizing basis deriv contribution to polar:
 IMax=3 JMax=2 DiffMx= 0.00D+00
 G2DrvN: will do     4 centers at a time, making    1 passes doing MaxLOS=1.
 Calling FoFCou, ICntrl=  3107 FMM=F I1Cent=   0 AccDes= 0.00D+00.
 FoFDir/FoFCou used for L=0 through L=1.
 End of G2Drv Frequency-dependent properties file   721 does not exist.
 End of G2Drv Frequency-dependent properties file   722 does not exist.
          IDoAtm=111
          Differentiating once with respect to electric field.
                with respect to dipole field.
          Differentiating once with respect to nuclear coordinates.
          Keep R1 ints in memory in canonical form, NReq=804475.
          There are     9 degrees of freedom in the 1st order CPHF.  IDoFFX=4.
 Will reuse    3 saved solutions.
      6 vectors produced by pass  0 Test12= 4.44D-16 1.11D-08 XBig12= 3.68D-02 1.09D-01.
 AX will form     6 AO Fock derivatives at one time.
      6 vectors produced by pass  1 Test12= 4.44D-16 1.11D-08 XBig12= 3.73D-03 3.63D-02.
      6 vectors produced by pass  2 Test12= 4.44D-16 1.11D-08 XBig12= 1.59D-05 2.36D-03.
      6 vectors produced by pass  3 Test12= 4.44D-16 1.11D-08 XBig12= 1.04D-07 1.55D-04.
      5 vectors produced by pass  4 Test12= 4.44D-16 1.11D-08 XBig12= 9.59D-10 1.47D-05.
      4 vectors produced by pass  5 Test12= 4.44D-16 1.11D-08 XBig12= 5.76D-12 1.11D-06.
      1 vectors produced by pass  6 Test12= 4.44D-16 1.11D-08 XBig12= 9.07D-15 5.92D-08.
 Inverted reduced A of dimension    34 with in-core refinement.
 Isotropic polarizability for W=    0.000000        3.90 Bohr**3.
 End of Minotr Frequency-dependent properties file   721 does not exist.
 End of Minotr Frequency-dependent properties file   722 does not exist.

 **********************************************************************

            Population analysis using the SCF density.

 **********************************************************************

 Orbital symmetries:
       Occupied  (A1) (A1) (B2) (A1) (B1)
       Virtual   (A1) (B2) (B2) (A1) (B1) (A1) (B2) (A1)
 The electronic state is 1-A1.
 Alpha  occ. eigenvalues --  -20.51245  -1.34828  -0.72258  -0.54638  -0.49648
 Alpha virt. eigenvalues --    0.21149   0.30719   1.11408   1.16597   1.24326
 Alpha virt. eigenvalues --    1.28450   1.46375   1.80577
          Condensed to atoms (all electrons):
              1          2          3
     1  O    8.273879   0.264747   0.264747
     2  H    0.264747   0.362437  -0.028871
     3  H    0.264747  -0.028871   0.362437
 Mulliken atomic charges:
              1
     1  O   -0.803374
     2  H    0.401687
     3  H    0.401687
 Sum of Mulliken atomic charges =   0.00000
 Mulliken charges with hydrogens summed into heavy atoms:
              1
     1  O    0.000000
 Sum of Mulliken charges with hydrogens summed into heavy atoms =   0.00000
 APT atomic charges:
              1
     1  O   -0.646540
     2  H    0.323270
     3  H    0.323270
 Sum of APT charges=   0.00000
 APT Atomic charges with hydrogens summed into heavy atoms:
              1
     1  O    0.000000
     2  H    0.000000
     3  H    0.000000
 Sum of APT charges=   0.00000
 Electronic spatial extent (au):  <R**2>=             18.8855
 Charge=              0.0000 electrons
 Dipole moment (field-independent basis, Debye):
    X=              0.0000    Y=              0.0000    Z=             -2.4859  Tot=              2.4859
 Quadrupole moment (field-independent basis, Debye-Ang):
   XX=             -7.1356   YY=             -3.8964   ZZ=             -6.2444
   XY=              0.0000   XZ=              0.0000   YZ=              0.0000
 Traceless Quadrupole moment (field-independent basis, Debye-Ang):
   XX=             -1.3768   YY=              1.8624   ZZ=             -0.4856
   XY=              0.0000   XZ=              0.0000   YZ=              0.0000
 Octapole moment (field-independent basis, Debye-Ang**2):
  XXX=              0.0000  YYY=              0.0000  ZZZ=             -1.4411  XYY=              0.0000
  XXY=              0.0000  XXZ=             -0.4122  XZZ=              0.0000  YZZ=              0.0000
  YYZ=             -1.3037  XYZ=              0.0000
 Hexadecapole moment (field-independent basis, Debye-Ang**3):
 XXXX=             -5.0001 YYYY=             -5.2814 ZZZZ=             -5.8796 XXXY=              0.0000
 XXXZ=              0.0000 YYYX=              0.0000 YYYZ=              0.0000 ZZZX=              0.0000
 ZZZY=              0.0000 XXYY=             -1.9935 XXZZ=             -1.8475 YYZZ=             -1.6327
 XXYZ=              0.0000 YYXZ=              0.0000 ZZXY=              0.0000
 N-N= 9.245178830213D+00 E-N=-1.990028412316D+02  KE= 7.594755295031D+01
 Symmetry A1   KE= 6.787746791098D+01
 Symmetry A2   KE= 0.000000000000D+00
 Symmetry B1   KE= 4.578975070924D+00
 Symmetry B2   KE= 3.491109968402D+00
  Exact polarizability:   1.334   0.000   6.588   0.000   0.000   3.772
 Approx polarizability:   0.944   0.000   4.847   0.000   0.000   2.763
 Calling FoFJK, ICntrl=    100127 FMM=F ISym2X=1 I1Cent= 0 IOpClX= 0 NMat=1 NMatS=1 NMatT=0.
 Full mass-weighted force constant matrix:
 Low frequencies ---   -0.0011    0.0009    0.0011   12.4378   20.6673   23.2458
 Low frequencies --- 1742.8033 3957.8366 4109.6565
 Diagonal vibrational polarizability:
        0.0000000       0.0792962       1.0654802
 Diagonal vibrational hyperpolarizability:
        0.0000000       0.0000000     -10.5223911
 Harmonic frequencies (cm**-1), IR intensities (KM/Mole), Raman scattering
 activities (A**4/AMU), depolarization ratios for plane and unpolarized
 incident light, reduced masses (AMU), force constants (mDyne/A),
 and normal coordinates:
                     1                      2                      3
                    A1                     A1                     B2
 Frequencies --  1742.8033              3957.8366              4109.6565
 Red. masses --     1.0917                 1.0369                 1.0884
 Frc consts  --     1.9536                 9.5701                10.8310
 IR Inten    --   119.7195                 2.7702                49.7657
 Raman Activ --    10.5379                90.0117                40.2085
 Depolar (P) --     0.3947                 0.2196                 0.7500
 Depolar (U) --     0.5660                 0.3601                 0.8571
  Atom  AN      X      Y      Z        X      Y      Z        X      Y      Z
     1   8     0.00   0.00   0.07     0.00   0.00   0.04     0.00   0.07   0.00
     2   1     0.00  -0.38  -0.59     0.00   0.61  -0.35     0.00  -0.58   0.40
     3   1     0.00   0.38  -0.59     0.00  -0.61  -0.35     0.00  -0.58  -0.40

 -------------------
 - Thermochemistry -
 -------------------
 Temperature   298.150 Kelvin.  Pressure   1.00000 Atm.
 Atom     1 has atomic number  8 and mass  15.99491
 Atom     2 has atomic number  1 and mass   1.00783
 Atom     3 has atomic number  1 and mass   1.00783
 Molecular mass:    18.01056 amu.
 Principal axes and moments of inertia in atomic units:
                           1         2         3
     Eigenvalues --     1.84146   4.42936   6.27082
           X            0.00000   0.00000   1.00000
           Y            1.00000   0.00000   0.00000
           Z            0.00000   1.00000   0.00000
 This molecule is an asymmetric top.
 Rotational symmetry number  2.
 Rotational temperatures (Kelvin)     47.03530    19.55448    13.81219
 Rotational constants (GHZ):         980.05782   407.44975   287.79973
 Zero-point vibrational energy      58678.6 (Joules/Mol)
                                   14.02452 (Kcal/Mol)
 Vibrational temperatures:   2507.50  5694.44  5912.87
          (Kelvin)
 
 Zero-point correction=                           0.022349 (Hartree/Particle)
 Thermal correction to Energy=                    0.025184
 Thermal correction to Enthalpy=                  0.026128
 Thermal correction to Gibbs Free Energy=         0.004772
 Sum of electronic and zero-point Energies=            -75.886286
 Sum of electronic and thermal Energies=               -75.883452
 Sum of electronic and thermal Enthalpies=             -75.882508
 Sum of electronic and thermal Free Energies=          -75.903864
 
                     E (Thermal)             CV                S
                      KCal/Mol        Cal/Mol-Kelvin    Cal/Mol-Kelvin
 Total                   15.803              5.993             44.948
 Electronic               0.000              0.000              0.000
 Translational            0.889              2.981             34.608
 Rotational               0.889              2.981             10.335
 Vibrational             14.026              0.031              0.004
                       Q            Log10(Q)             Ln(Q)
 Total Bot       0.638321D-02         -2.194961         -5.054084
 Total V=0       0.121639D+09          8.085074         18.616570
 Vib (Bot)       0.524883D-10        -10.279938        -23.670431
 Vib (V=0)       0.100022D+01          0.000097          0.000223
 Electronic      0.100000D+01          0.000000          0.000000
 Translational   0.300432D+07          6.477746         14.915562
 Rotational      0.404791D+02          1.607231          3.700786
 ***** Axes restored to original set *****
 -------------------------------------------------------------------
 Center     Atomic                   Forces (Hartrees/Bohr)
 Number     Number              X              Y              Z
 -------------------------------------------------------------------
      1        8           0.000006135    0.000008681    0.000000000
      2        1          -0.000028017    0.000013292    0.000000000
      3        1           0.000021882   -0.000021973    0.000000000
 -------------------------------------------------------------------
 Cartesian Forces:  Max     0.000028017 RMS     0.000015042

 GradGradGradGradGradGradGradGradGradGradGradGradGradGradGradGradGradGrad
 Berny optimization.
 Internal  Forces:  Max     0.000028215 RMS     0.000026622
 Search for a local minimum.
 Step number   1 out of a maximum of    2
 All quantities printed in internal units (Hartrees-Bohrs-Radians)
 Second derivative matrix not updated -- analytic derivatives used.
 The second derivative matrix:
                          R1        R2        A1
           R1           0.58448
           R2          -0.00875   0.58448
           A1           0.03973   0.03973   0.17767
     Eigenvalues ---    0.16989   0.58351   0.59323
 Angle between quadratic step and forces=  32.29 degrees.
 Linear search not attempted -- first point.
 Iteration  1 RMS(Cart)=  0.00007915 RMS(Int)=  0.00000000
 Iteration  2 RMS(Cart)=  0.00000000 RMS(Int)=  0.00000000
 ClnCor:  largest displacement from symmetrization is 9.14D-15 for atom     3.
 Variable       Old X    -DE/DX   Delta X   Delta X   Delta X     New X
                                 (Linear)    (Quad)   (Total)
    R1        1.79616  -0.00003   0.00000  -0.00004  -0.00004   1.79612
    R2        1.79616  -0.00003   0.00000  -0.00004  -0.00004   1.79612
    A1        1.94150  -0.00002   0.00000  -0.00011  -0.00011   1.94139
         Item               Value     Threshold  Converged?
 Maximum Force            0.000028     0.000450     YES
 RMS     Force            0.000027     0.000300     YES
 Maximum Displacement     0.000085     0.001800     YES
 RMS     Displacement     0.000079     0.001200     YES
 Predicted change in Energy=-2.454766D-09
 Optimization completed.
    -- Stationary point found.
                           ----------------------------
                           !   Optimized Parameters   !
                           ! (Angstroms and Degrees)  !
 --------------------------                            --------------------------
 ! Name  Definition              Value          Derivative Info.                !
 --------------------------------------------------------------------------------
 ! R1    R(1,2)                  0.9505         -DE/DX =    0.0                 !
 ! R2    R(1,3)                  0.9505         -DE/DX =    0.0                 !
 ! A1    A(2,1,3)              111.24           -DE/DX =    0.0                 !
 --------------------------------------------------------------------------------
 GradGradGradGradGradGradGradGradGradGradGradGradGradGradGradGradGradGrad

 1|1|UNPC-PUB-7-042|Freq|RHF|4-31G|H2O1|CCLAB|10-May-2023|0||#N Geom=Al
 lCheck Guess=TCheck SCRF=Check GenChk RHF/4-31G Freq||Title Card Requi
 red||0,1|O,-2.6515563585,-3.9146105994,0.|H,-1.7011783161,-3.929042865
 3,0.|H,-2.9824035248,-3.0235624153,0.||Version=IA32W-G09RevA.02|State=
 1-A1|HF=-75.9086358|RMSD=1.763e-010|RMSF=1.504e-005|ZeroPoint=0.022349
 5|Thermal=0.0251838|Dipole=0.5644601,0.7986926,0.|DipoleDeriv=-0.50421
 27,0.0467086,0.,0.0467086,-0.4711319,0.,0.,0.,-0.9642761,0.1378461,-0.
 0389337,0.,-0.0886983,0.3498262,0.,0.,0.,0.4821381,0.3663666,-0.007774
 9,0.,0.0419897,0.1213057,0.,0.,0.,0.4821381|Polar=5.650282,-1.3270972,
 4.7103824,0.,0.,1.3339254|PolarDeriv=-7.0873097,-1.3719606,0.1558178,0
 .,0.,0.3250935,-2.2846991,0.8008776,-7.5231351,0.,0.,0.4599966,0.,0.,0
 .,-1.3876225,-1.9634404,0.,8.142192,-0.6401183,0.4323683,0.,0.,-0.4537
 269,0.8608667,1.5879355,0.4324975,0.,0.,-0.0242125,0.,0.,0.,2.1410822,
 -0.0411098,0.,-1.0548823,2.012079,-0.588186,0.,0.,0.1286334,1.4238324,
 -2.3888131,7.0906377,0.,0.,-0.4357841,0.,0.,0.,-0.7534597,2.0045502,0.
 |HyperPolar=27.4505227,3.2893844,-7.9353257,24.3239809,0.,0.,0.,0.6486
 035,0.9177528,0.|PG=C02V [C2(O1),SGV(H2)]|NImag=0||0.68376842,-0.17598
 358,0.55913031,0.,0.,0.00001048,-0.56689728,0.04606773,0.,0.58368725,-
 0.02944677,-0.05455208,0.,-0.03014220,0.05588002,0.,0.,-0.00000524,0.,
 0.,0.00001292,-0.11687114,0.12991585,0.,-0.01678997,0.05958897,0.,0.13
 366111,0.20543035,-0.50457822,0.,-0.01592554,-0.00132794,0.,-0.1895048
 1,0.50590616,0.,0.,-0.00000524,0.,0.,-0.00000768,0.,0.,0.00001292||-0.
 00000613,-0.00000868,0.,0.00002802,-0.00001329,0.,-0.00002188,0.000021
 97,0.|||@


 A SLIP OF THE FOOT YOU MAY SOON RECOVER, BUT A SLIP OF THE TONGUE
 YOU MAY NEVER GET OVER. -- BEN FRANKLIN
 Job cpu time:  0 days  0 hours  0 minutes  1.0 seconds.
 File lengths (MBytes):  RWF=      5 Int=      0 D2E=      0 Chk=      1 Scr=      1
 Normal termination of Gaussian 09 at Wed May 10 14:25:58 2023.
