 Entering Link 1 = C:\G09W\l1.exe PID=     11000.
  
 Copyright (c) 1988,1990,1992,1993,1995,1998,2003,2009, Gaussian, Inc.
                  All Rights Reserved.
  
 This is part of the Gaussian(R) 09 program.  It is based on
 the Gaussian(R) 03 system (copyright 2003, Gaussian, Inc.),
 the Gaussian(R) 98 system (copyright 1998, Gaussian, Inc.),
 the Gaussian(R) 94 system (copyright 1995, Gaussian, Inc.),
 the Gaussian 92(TM) system (copyright 1992, Gaussian, Inc.),
 the Gaussian 90(TM) system (copyright 1990, Gaussian, Inc.),
 the Gaussian 88(TM) system (copyright 1988, Gaussian, Inc.),
 the Gaussian 86(TM) system (copyright 1986, Carnegie Mellon
 University), and the Gaussian 82(TM) system (copyright 1983,
 Carnegie Mellon University). Gaussian is a federally registered
 trademark of Gaussian, Inc.
  
 This software contains proprietary and confidential information,
 including trade secrets, belonging to Gaussian, Inc.
  
 This software is provided under written license and may be
 used, copied, transmitted, or stored only in accord with that
 written license.
  
 The following legend is applicable only to US Government
 contracts under FAR:
  
                    RESTRICTED RIGHTS LEGEND
  
 Use, reproduction and disclosure by the US Government is
 subject to restrictions as set forth in subparagraphs (a)
 and (c) of the Commercial Computer Software - Restricted
 Rights clause in FAR 52.227-19.
  
 Gaussian, Inc.
 340 Quinnipiac St., Bldg. 40, Wallingford CT 06492
  
  
 ---------------------------------------------------------------
 Warning -- This program may not be used in any manner that
 competes with the business of Gaussian, Inc. or will provide
 assistance to any competitor of Gaussian, Inc.  The licensee
 of this program is prohibited from giving any competitor of
 Gaussian, Inc. access to this program.  By using this program,
 the user acknowledges that Gaussian, Inc. is engaged in the
 business of creating and licensing software in the field of
 computational chemistry and represents and warrants to the
 licensee that it is not a competitor of Gaussian, Inc. and that
 it will not use this program in any manner prohibited above.
 ---------------------------------------------------------------
  

 Cite this work as:
 Gaussian 09, Revision A.02,
 M. J. Frisch, G. W. Trucks, H. B. Schlegel, G. E. Scuseria, 
 M. A. Robb, J. R. Cheeseman, G. Scalmani, V. Barone, B. Mennucci, 
 G. A. Petersson, H. Nakatsuji, M. Caricato, X. Li, H. P. Hratchian, 
 A. F. Izmaylov, J. Bloino, G. Zheng, J. L. Sonnenberg, M. Hada, 
 M. Ehara, K. Toyota, R. Fukuda, J. Hasegawa, M. Ishida, T. Nakajima, 
 Y. Honda, O. Kitao, H. Nakai, T. Vreven, J. A. Montgomery, Jr., 
 J. E. Peralta, F. Ogliaro, M. Bearpark, J. J. Heyd, E. Brothers, 
 K. N. Kudin, V. N. Staroverov, R. Kobayashi, J. Normand, 
 K. Raghavachari, A. Rendell, J. C. Burant, S. S. Iyengar, J. Tomasi, 
 M. Cossi, N. Rega, J. M. Millam, M. Klene, J. E. Knox, J. B. Cross, 
 V. Bakken, C. Adamo, J. Jaramillo, R. Gomperts, R. E. Stratmann, 
 O. Yazyev, A. J. Austin, R. Cammi, C. Pomelli, J. W. Ochterski, 
 R. L. Martin, K. Morokuma, V. G. Zakrzewski, G. A. Voth, 
 P. Salvador, J. J. Dannenberg, S. Dapprich, A. D. Daniels, 
 O. Farkas, J. B. Foresman, J. V. Ortiz, J. Cioslowski, 
 and D. J. Fox, Gaussian, Inc., Wallingford CT, 2009.
 
 ******************************************
 Gaussian 09:  IA32W-G09RevA.02 11-Jun-2009
                10-May-2023 
 ******************************************
 %chk=D:\homework2\Problem3\6-31G(d).chk
 ----------------------
 # hf/6-31g(d) opt freq
 ----------------------
 1/18=20,19=15,38=1/1,3;
 2/9=110,12=2,17=6,18=5,40=1/2;
 3/5=1,6=6,7=1,11=9,16=1,25=1,30=1,71=1/1,2,3;
 4//1;
 5/5=2,38=5/2;
 6/7=2,8=2,9=2,10=2,28=1/1;
 7//1,2,3,16;
 1/18=20,19=15/3(2);
 2/9=110/2;
 99//99;
 2/9=110/2;
 3/5=1,6=6,7=1,11=9,16=1,25=1,30=1,71=1/1,2,3;
 4/5=5,16=3/1;
 5/5=2,38=5/2;
 7//1,2,3,16;
 1/18=20,19=15/3(-5);
 2/9=110/2;
 6/7=2,8=2,9=2,10=2,19=2,28=1/1;
 99/9=1/99;
 -------------------
 Title Card Required
 -------------------
 Symbolic Z-matrix:
 Charge =  0 Multiplicity = 1
 O                    -2.65823  -3.92405   0. 
 H                    -1.69823  -3.92405   0. 
 H                    -2.97868  -3.01911   0. 
 

 GradGradGradGradGradGradGradGradGradGradGradGradGradGradGradGradGradGrad
 Berny optimization.
 Initialization pass.
                           ----------------------------
                           !    Initial Parameters    !
                           ! (Angstroms and Degrees)  !
 --------------------------                            --------------------------
 ! Name  Definition              Value          Derivative Info.                !
 --------------------------------------------------------------------------------
 ! R1    R(1,2)                  0.96           estimate D2E/DX2                !
 ! R2    R(1,3)                  0.96           estimate D2E/DX2                !
 ! A1    A(2,1,3)              109.5            estimate D2E/DX2                !
 --------------------------------------------------------------------------------
 Trust Radius=3.00D-01 FncErr=1.00D-07 GrdErr=1.00D-07
 Number of steps in this run=  20 maximum allowed number of steps= 100.
 GradGradGradGradGradGradGradGradGradGradGradGradGradGradGradGradGradGrad

                          Input orientation:                          
 ---------------------------------------------------------------------
 Center     Atomic      Atomic             Coordinates (Angstroms)
 Number     Number       Type             X           Y           Z
 ---------------------------------------------------------------------
      1          8           0       -2.658228   -3.924051    0.000000
      2          1           0       -1.698228   -3.924051    0.000000
      3          1           0       -2.978682   -3.019115    0.000000
 ---------------------------------------------------------------------
                    Distance matrix (angstroms):
                    1          2          3
     1  O    0.000000
     2  H    0.960000   0.000000
     3  H    0.960000   1.567952   0.000000
 Stoichiometry    H2O
 Framework group  C2V[C2(O),SGV(H2)]
 Deg. of freedom     2
 Full point group                 C2V     NOp   4
 Largest Abelian subgroup         C2V     NOp   4
 Largest concise Abelian subgroup C2      NOp   2
                         Standard orientation:                         
 ---------------------------------------------------------------------
 Center     Atomic      Atomic             Coordinates (Angstroms)
 Number     Number       Type             X           Y           Z
 ---------------------------------------------------------------------
      1          8           0        0.000000    0.000000    0.110812
      2          1           0        0.000000    0.783976   -0.443248
      3          1           0        0.000000   -0.783976   -0.443248
 ---------------------------------------------------------------------
 Rotational constants (GHZ):    919.6759643    407.9403261    282.5913749
 Standard basis: 6-31G(d) (6D, 7F)
 There are    10 symmetry adapted basis functions of A1  symmetry.
 There are     1 symmetry adapted basis functions of A2  symmetry.
 There are     3 symmetry adapted basis functions of B1  symmetry.
 There are     5 symmetry adapted basis functions of B2  symmetry.
 Integral buffers will be    262144 words long.
 Raffenetti 1 integral format.
 Two-electron integral symmetry is turned on.
    19 basis functions,    36 primitive gaussians,    19 cartesian basis functions
     5 alpha electrons        5 beta electrons
       nuclear repulsion energy         9.1571159843 Hartrees.
 NAtoms=    3 NActive=    3 NUniq=    2 SFac= 1.69D+00 NAtFMM=   80 NAOKFM=F Big=F
 One-electron integrals computed using PRISM.
 NBasis=    19 RedAO= T  NBF=    10     1     3     5
 NBsUse=    19 1.00D-06 NBFU=    10     1     3     5
 Harris functional with IExCor=  205 diagonalized for initial guess.
 ExpMin= 1.61D-01 ExpMax= 5.48D+03 ExpMxC= 8.25D+02 IAcc=1 IRadAn=         1 AccDes= 0.00D+00
 HarFok:  IExCor=  205 AccDes= 0.00D+00 IRadAn=         1 IDoV= 1
 ScaDFX=  1.000000  1.000000  1.000000  1.000000
 FoFCou: FMM=F IPFlag=           0 FMFlag=      100000 FMFlg1=           0
         NFxFlg=           0 DoJE=T BraDBF=F KetDBF=T FulRan=T
         Omega=  0.000000  0.000000  1.000000  0.000000  0.000000 ICntrl=     500 IOpCl=  0
         NMat0=    1 NMatS0=    1 NMatT0=    0 NMatD0=    1 NMtDS0=    0 NMtDT0=    0
         I1Cent=           4 NGrid=           0.
 Petite list used in FoFCou.
 Initial guess orbital symmetries:
       Occupied  (A1) (A1) (B2) (A1) (B1)
       Virtual   (A1) (B2) (B2) (A1) (B1) (A1) (B2) (A1) (A2) (A1)
                 (B1) (A1) (B2) (A1)
 The electronic state of the initial guess is 1-A1.
 Requested convergence on RMS density matrix=1.00D-08 within 128 cycles.
 Requested convergence on MAX density matrix=1.00D-06.
 Requested convergence on             energy=1.00D-06.
 No special actions if energy rises.
 Keep R1 ints in memory in canonical form, NReq=857897.
 SCF Done:  E(RHF) =  -76.0098616191     A.U. after   10 cycles
             Convg  =    0.4229D-08             -V/T =  2.0028

 **********************************************************************

            Population analysis using the SCF density.

 **********************************************************************

 Orbital symmetries:
       Occupied  (A1) (A1) (B2) (A1) (B1)
       Virtual   (A1) (B2) (B2) (A1) (A1) (B1) (B2) (A1) (A2) (A1)
                 (B1) (A1) (B2) (A1)
 The electronic state is 1-A1.
 Alpha  occ. eigenvalues --  -20.55794  -1.33611  -0.71423  -0.56023  -0.49558
 Alpha virt. eigenvalues --    0.21060   0.30390   1.04597   1.11652   1.15955
 Alpha virt. eigenvalues --    1.16929   1.38464   1.41667   2.03063   2.03561
 Alpha virt. eigenvalues --    2.07414   2.62760   2.94203   3.97818
          Condensed to atoms (all electrons):
              1          2          3
     1  O    8.346539   0.264836   0.264836
     2  H    0.264836   0.313220  -0.016162
     3  H    0.264836  -0.016162   0.313220
 Mulliken atomic charges:
              1
     1  O   -0.876211
     2  H    0.438106
     3  H    0.438106
 Sum of Mulliken atomic charges =   0.00000
 Mulliken charges with hydrogens summed into heavy atoms:
              1
     1  O    0.000000
 Sum of Mulliken charges with hydrogens summed into heavy atoms =   0.00000
 Electronic spatial extent (au):  <R**2>=             18.9610
 Charge=              0.0000 electrons
 Dipole moment (field-independent basis, Debye):
    X=              0.0000    Y=              0.0000    Z=             -2.1381  Tot=              2.1381
 Quadrupole moment (field-independent basis, Debye-Ang):
   XX=             -7.2321   YY=             -3.8943   ZZ=             -6.1133
   XY=              0.0000   XZ=              0.0000   YZ=              0.0000
 Traceless Quadrupole moment (field-independent basis, Debye-Ang):
   XX=             -1.4856   YY=              1.8523   ZZ=             -0.3667
   XY=              0.0000   XZ=              0.0000   YZ=              0.0000
 Octapole moment (field-independent basis, Debye-Ang**2):
  XXX=              0.0000  YYY=              0.0000  ZZZ=             -1.3406  XYY=              0.0000
  XXY=              0.0000  XXZ=             -0.3667  XZZ=              0.0000  YZZ=              0.0000
  YYZ=             -1.4023  XYZ=              0.0000
 Hexadecapole moment (field-independent basis, Debye-Ang**3):
 XXXX=             -5.2144 YYYY=             -5.2954 ZZZZ=             -6.0100 XXXY=              0.0000
 XXXZ=              0.0000 YYYX=              0.0000 YYYZ=              0.0000 ZZZX=              0.0000
 ZZZY=              0.0000 XXYY=             -2.0596 XXZZ=             -1.9113 YYZZ=             -1.6067
 XXYZ=              0.0000 YYXZ=              0.0000 ZZXY=              0.0000
 N-N= 9.157115984281D+00 E-N=-1.988070587159D+02  KE= 7.580129573069D+01
 Symmetry A1   KE= 6.775227941823D+01
 Symmetry A2   KE= 7.573064962179D-35
 Symmetry B1   KE= 4.548321686326D+00
 Symmetry B2   KE= 3.500694626141D+00
 Calling FoFJK, ICntrl=      2127 FMM=F ISym2X=1 I1Cent= 0 IOpClX= 0 NMat=1 NMatS=1 NMatT=0.
 ***** Axes restored to original set *****
 -------------------------------------------------------------------
 Center     Atomic                   Forces (Hartrees/Bohr)
 Number     Number              X              Y              Z
 -------------------------------------------------------------------
      1        8           0.003151113    0.004458722    0.000000000
      2        1          -0.015776442    0.007806833    0.000000000
      3        1           0.012625330   -0.012265555    0.000000000
 -------------------------------------------------------------------
 Cartesian Forces:  Max     0.015776442 RMS     0.008495066

 GradGradGradGradGradGradGradGradGradGradGradGradGradGradGradGradGradGrad
 Berny optimization.
 Internal  Forces:  Max     0.015776442 RMS     0.015257494
 Search for a local minimum.
 Step number   1 out of a maximum of   20
 All quantities printed in internal units (Hartrees-Bohrs-Radians)
 Mixed Optimization -- RFO/linear search
 Second derivative matrix not updated -- first step.
 The second derivative matrix:
                          R1        R2        A1
           R1           0.55473
           R2           0.00000   0.55473
           A1           0.00000   0.00000   0.16000
     Eigenvalues ---    0.16000   0.55473   0.55473
 RFO step:  Lambda=-2.13107455D-03 EMin= 1.60000000D-01
 Linear search not attempted -- first point.
 Iteration  1 RMS(Cart)=  0.06051474 RMS(Int)=  0.00161565
 Iteration  2 RMS(Cart)=  0.00112450 RMS(Int)=  0.00000068
 Iteration  3 RMS(Cart)=  0.00000074 RMS(Int)=  0.00000000
 ClnCor:  largest displacement from symmetrization is 6.76D-15 for atom     3.
 Variable       Old X    -DE/DX   Delta X   Delta X   Delta X     New X
                                 (Linear)    (Quad)   (Total)
    R1        1.81414  -0.01578   0.00000  -0.02833  -0.02833   1.78581
    R2        1.81414  -0.01578   0.00000  -0.02833  -0.02833   1.78581
    A1        1.91114  -0.01416   0.00000  -0.08735  -0.08735   1.82378
         Item               Value     Threshold  Converged?
 Maximum Force            0.015776     0.000450     NO 
 RMS     Force            0.015257     0.000300     NO 
 Maximum Displacement     0.065695     0.001800     NO 
 RMS     Displacement     0.060828     0.001200     NO 
 Predicted change in Energy=-1.075378D-03
 GradGradGradGradGradGradGradGradGradGradGradGradGradGradGradGradGradGrad

                          Input orientation:                          
 ---------------------------------------------------------------------
 Center     Atomic      Atomic             Coordinates (Angstroms)
 Number     Number       Type             X           Y           Z
 ---------------------------------------------------------------------
      1          8           0       -2.667664   -3.937402    0.000000
      2          1           0       -1.723557   -3.896140    0.000000
      3          1           0       -2.943918   -3.033674    0.000000
 ---------------------------------------------------------------------
                    Distance matrix (angstroms):
                    1          2          3
     1  O    0.000000
     2  H    0.945008   0.000000
     3  H    0.945008   1.494366   0.000000
 Stoichiometry    H2O
 Framework group  C2V[C2(O),SGV(H2)]
 Deg. of freedom     2
 Full point group                 C2V     NOp   4
 Largest Abelian subgroup         C2V     NOp   4
 Largest concise Abelian subgroup C2      NOp   2
                         Standard orientation:                         
 ---------------------------------------------------------------------
 Center     Atomic      Atomic             Coordinates (Angstroms)
 Number     Number       Type             X           Y           Z
 ---------------------------------------------------------------------
      1          8           0        0.000000    0.000000    0.115717
      2          1           0        0.000000    0.747183   -0.462866
      3          1           0        0.000000   -0.747183   -0.462866
 ---------------------------------------------------------------------
 Rotational constants (GHZ):    843.3672009    449.1053653    293.0512761
 Standard basis: 6-31G(d) (6D, 7F)
 There are    10 symmetry adapted basis functions of A1  symmetry.
 There are     1 symmetry adapted basis functions of A2  symmetry.
 There are     3 symmetry adapted basis functions of B1  symmetry.
 There are     5 symmetry adapted basis functions of B2  symmetry.
 Integral buffers will be    262144 words long.
 Raffenetti 1 integral format.
 Two-electron integral symmetry is turned on.
    19 basis functions,    36 primitive gaussians,    19 cartesian basis functions
     5 alpha electrons        5 beta electrons
       nuclear repulsion energy         9.3136533929 Hartrees.
 NAtoms=    3 NActive=    3 NUniq=    2 SFac= 1.69D+00 NAtFMM=   80 NAOKFM=F Big=F
 One-electron integrals computed using PRISM.
 NBasis=    19 RedAO= T  NBF=    10     1     3     5
 NBsUse=    19 1.00D-06 NBFU=    10     1     3     5
 Initial guess read from the read-write file.
 B after Tr=     0.000000    0.000000    0.000000
         Rot=    1.000000    0.000000    0.000000    0.000000 Ang=   0.00 deg.
 Initial guess orbital symmetries:
       Occupied  (A1) (A1) (B2) (A1) (B1)
       Virtual   (A1) (B2) (B2) (A1) (A1) (B1) (B2) (A1) (A2) (A1)
                 (B1) (A1) (B2) (A1)
 Harris functional with IExCor=  205 diagonalized for initial guess.
 ExpMin= 1.61D-01 ExpMax= 5.48D+03 ExpMxC= 8.25D+02 IAcc=1 IRadAn=         1 AccDes= 0.00D+00
 HarFok:  IExCor=  205 AccDes= 0.00D+00 IRadAn=         1 IDoV= 1
 ScaDFX=  1.000000  1.000000  1.000000  1.000000
 FoFCou: FMM=F IPFlag=           0 FMFlag=      100000 FMFlg1=           0
         NFxFlg=           0 DoJE=T BraDBF=F KetDBF=T FulRan=T
         Omega=  0.000000  0.000000  1.000000  0.000000  0.000000 ICntrl=     500 IOpCl=  0
         NMat0=    1 NMatS0=    1 NMatT0=    0 NMatD0=    1 NMtDS0=    0 NMtDT0=    0
         I1Cent=           4 NGrid=           0.
 Petite list used in FoFCou.
 Requested convergence on RMS density matrix=1.00D-08 within 128 cycles.
 Requested convergence on MAX density matrix=1.00D-06.
 Requested convergence on             energy=1.00D-06.
 No special actions if energy rises.
 Keep R1 ints in memory in canonical form, NReq=857897.
 SCF Done:  E(RHF) =  -76.0107008825     A.U. after    9 cycles
             Convg  =    0.2779D-08             -V/T =  2.0018
 Calling FoFJK, ICntrl=      2127 FMM=F ISym2X=1 I1Cent= 0 IOpClX= 0 NMat=1 NMatS=1 NMatT=0.
 ***** Axes restored to original set *****
 -------------------------------------------------------------------
 Center     Atomic                   Forces (Hartrees/Bohr)
 Number     Number              X              Y              Z
 -------------------------------------------------------------------
      1        8          -0.000382410   -0.000541098    0.000000000
      2        1           0.003259312   -0.001897775    0.000000000
      3        1          -0.002876902    0.002438873    0.000000000
 -------------------------------------------------------------------
 Cartesian Forces:  Max     0.003259312 RMS     0.001791596

 GradGradGradGradGradGradGradGradGradGradGradGradGradGradGradGradGradGrad
 Berny optimization.
 Using GEDIIS/GDIIS optimizer.
 Internal  Forces:  Max     0.003639965 RMS     0.003336143
 Search for a local minimum.
 Step number   2 out of a maximum of   20
 All quantities printed in internal units (Hartrees-Bohrs-Radians)
 Mixed Optimization -- RFO/linear search
 Update second derivatives using D2CorX and points    1    2
 DE= -8.39D-04 DEPred=-1.08D-03 R= 7.80D-01
 SS=  1.41D+00  RLast= 9.61D-02 DXNew= 5.0454D-01 2.8831D-01
 Trust test= 7.80D-01 RLast= 9.61D-02 DXMaxT set to 3.00D-01
 The second derivative matrix:
                          R1        R2        A1
           R1           0.57435
           R2           0.01962   0.57435
           A1           0.02430   0.02430   0.18804
 Use linear search instead of GDIIS.
     Eigenvalues ---    0.18515   0.55473   0.59685
 RFO step:  Lambda=-6.82369786D-07 EMin= 1.85153980D-01
 Quartic linear search produced a step of -0.18164.
 Iteration  1 RMS(Cart)=  0.01146921 RMS(Int)=  0.00005926
 Iteration  2 RMS(Cart)=  0.00004073 RMS(Int)=  0.00000000
 Iteration  3 RMS(Cart)=  0.00000000 RMS(Int)=  0.00000000
 ClnCor:  largest displacement from symmetrization is 8.43D-15 for atom     3.
 Variable       Old X    -DE/DX   Delta X   Delta X   Delta X     New X
                                 (Linear)    (Quad)   (Total)
    R1        1.78581   0.00317   0.00515  -0.00061   0.00454   1.79034
    R2        1.78581   0.00317   0.00515  -0.00061   0.00454   1.79034
    A1        1.82378   0.00364   0.01587   0.00130   0.01717   1.84095
         Item               Value     Threshold  Converged?
 Maximum Force            0.003640     0.000450     NO 
 RMS     Force            0.003336     0.000300     NO 
 Maximum Displacement     0.012380     0.001800     NO 
 RMS     Displacement     0.011461     0.001200     NO 
 Predicted change in Energy=-4.756230D-05
 GradGradGradGradGradGradGradGradGradGradGradGradGradGradGradGradGradGrad

                          Input orientation:                          
 ---------------------------------------------------------------------
 Center     Atomic      Atomic             Coordinates (Angstroms)
 Number     Number       Type             X           Y           Z
 ---------------------------------------------------------------------
      1          8           0       -2.665747   -3.934690    0.000000
      2          1           0       -1.718922   -3.901449    0.000000
      3          1           0       -2.950469   -3.031077    0.000000
 ---------------------------------------------------------------------
                    Distance matrix (angstroms):
                    1          2          3
     1  O    0.000000
     2  H    0.947408   0.000000
     3  H    0.947408   1.508063   0.000000
 Stoichiometry    H2O
 Framework group  C2V[C2(O),SGV(H2)]
 Deg. of freedom     2
 Full point group                 C2V     NOp   4
 Largest Abelian subgroup         C2V     NOp   4
 Largest concise Abelian subgroup C2      NOp   2
                         Standard orientation:                         
 ---------------------------------------------------------------------
 Center     Atomic      Atomic             Coordinates (Angstroms)
 Number     Number       Type             X           Y           Z
 ---------------------------------------------------------------------
      1          8           0        0.000000    0.000000    0.114720
      2          1           0        0.000000    0.754031   -0.458881
      3          1           0        0.000000   -0.754031   -0.458881
 ---------------------------------------------------------------------
 Rotational constants (GHZ):    858.0774145    440.9843845    291.2861734
 Standard basis: 6-31G(d) (6D, 7F)
 There are    10 symmetry adapted basis functions of A1  symmetry.
 There are     1 symmetry adapted basis functions of A2  symmetry.
 There are     3 symmetry adapted basis functions of B1  symmetry.
 There are     5 symmetry adapted basis functions of B2  symmetry.
 Integral buffers will be    262144 words long.
 Raffenetti 1 integral format.
 Two-electron integral symmetry is turned on.
    19 basis functions,    36 primitive gaussians,    19 cartesian basis functions
     5 alpha electrons        5 beta electrons
       nuclear repulsion energy         9.2877382868 Hartrees.
 NAtoms=    3 NActive=    3 NUniq=    2 SFac= 1.69D+00 NAtFMM=   80 NAOKFM=F Big=F
 One-electron integrals computed using PRISM.
 NBasis=    19 RedAO= T  NBF=    10     1     3     5
 NBsUse=    19 1.00D-06 NBFU=    10     1     3     5
 Initial guess read from the read-write file.
 B after Tr=     0.000000    0.000000    0.000000
         Rot=    1.000000    0.000000    0.000000    0.000000 Ang=   0.00 deg.
 Initial guess orbital symmetries:
       Occupied  (A1) (A1) (B2) (A1) (B1)
       Virtual   (A1) (B2) (B2) (A1) (B1) (A1) (B2) (A1) (A1) (A2)
                 (B1) (A1) (B2) (A1)
 Requested convergence on RMS density matrix=1.00D-08 within 128 cycles.
 Requested convergence on MAX density matrix=1.00D-06.
 Requested convergence on             energy=1.00D-06.
 No special actions if energy rises.
 Keep R1 ints in memory in canonical form, NReq=857897.
 SCF Done:  E(RHF) =  -76.0107464887     A.U. after    8 cycles
             Convg  =    0.2714D-08             -V/T =  2.0020
 Calling FoFJK, ICntrl=      2127 FMM=F ISym2X=1 I1Cent= 0 IOpClX= 0 NMat=1 NMatS=1 NMatT=0.
 ***** Axes restored to original set *****
 -------------------------------------------------------------------
 Center     Atomic                   Forces (Hartrees/Bohr)
 Number     Number              X              Y              Z
 -------------------------------------------------------------------
      1        8           0.000095535    0.000135179    0.000000000
      2        1          -0.000090472   -0.000037409    0.000000000
      3        1          -0.000005063   -0.000097770    0.000000000
 -------------------------------------------------------------------
 Cartesian Forces:  Max     0.000135179 RMS     0.000071934

 GradGradGradGradGradGradGradGradGradGradGradGradGradGradGradGradGradGrad
 Berny optimization.
 Using GEDIIS/GDIIS optimizer.
 Internal  Forces:  Max     0.000091729 RMS     0.000082825
 Search for a local minimum.
 Step number   3 out of a maximum of   20
 All quantities printed in internal units (Hartrees-Bohrs-Radians)
 Mixed Optimization -- En-DIIS/RFO-DIIS
 Update second derivatives using D2CorX and points    1    2    3
 DE= -4.56D-05 DEPred=-4.76D-05 R= 9.59D-01
 SS=  1.41D+00  RLast= 1.83D-02 DXNew= 5.0454D-01 5.4974D-02
 Trust test= 9.59D-01 RLast= 1.83D-02 DXMaxT set to 3.00D-01
 The second derivative matrix:
                          R1        R2        A1
           R1           0.58067
           R2           0.02594   0.58067
           A1           0.02992   0.02992   0.19267
 Use linear search instead of GDIIS.
     Eigenvalues ---    0.18839   0.55473   0.61089
 RFO step:  Lambda=-5.33109566D-08 EMin= 1.88391177D-01
 Quartic linear search produced a step of  0.00243.
 Iteration  1 RMS(Cart)=  0.00018125 RMS(Int)=  0.00000003
 Iteration  2 RMS(Cart)=  0.00000003 RMS(Int)=  0.00000000
 ClnCor:  largest displacement from symmetrization is 6.76D-15 for atom     3.
 Variable       Old X    -DE/DX   Delta X   Delta X   Delta X     New X
                                 (Linear)    (Quad)   (Total)
    R1        1.79034  -0.00009   0.00001  -0.00018  -0.00017   1.79017
    R2        1.79034  -0.00009   0.00001  -0.00018  -0.00017   1.79017
    A1        1.84095   0.00006   0.00004   0.00033   0.00037   1.84132
         Item               Value     Threshold  Converged?
 Maximum Force            0.000092     0.000450     YES
 RMS     Force            0.000083     0.000300     YES
 Maximum Displacement     0.000200     0.001800     YES
 RMS     Displacement     0.000181     0.001200     YES
 Predicted change in Energy=-2.689544D-08
 Optimization completed.
    -- Stationary point found.
                           ----------------------------
                           !   Optimized Parameters   !
                           ! (Angstroms and Degrees)  !
 --------------------------                            --------------------------
 ! Name  Definition              Value          Derivative Info.                !
 --------------------------------------------------------------------------------
 ! R1    R(1,2)                  0.9474         -DE/DX =   -0.0001              !
 ! R2    R(1,3)                  0.9474         -DE/DX =   -0.0001              !
 ! A1    A(2,1,3)              105.4785         -DE/DX =    0.0001              !
 --------------------------------------------------------------------------------
 GradGradGradGradGradGradGradGradGradGradGradGradGradGradGradGradGradGrad

                          Input orientation:                          
 ---------------------------------------------------------------------
 Center     Atomic      Atomic             Coordinates (Angstroms)
 Number     Number       Type             X           Y           Z
 ---------------------------------------------------------------------
      1          8           0       -2.665747   -3.934690    0.000000
      2          1           0       -1.718922   -3.901449    0.000000
      3          1           0       -2.950469   -3.031077    0.000000
 ---------------------------------------------------------------------
                    Distance matrix (angstroms):
                    1          2          3
     1  O    0.000000
     2  H    0.947408   0.000000
     3  H    0.947408   1.508063   0.000000
 Stoichiometry    H2O
 Framework group  C2V[C2(O),SGV(H2)]
 Deg. of freedom     2
 Full point group                 C2V     NOp   4
 Largest Abelian subgroup         C2V     NOp   4
 Largest concise Abelian subgroup C2      NOp   2
                         Standard orientation:                         
 ---------------------------------------------------------------------
 Center     Atomic      Atomic             Coordinates (Angstroms)
 Number     Number       Type             X           Y           Z
 ---------------------------------------------------------------------
      1          8           0        0.000000    0.000000    0.114720
      2          1           0        0.000000    0.754031   -0.458881
      3          1           0        0.000000   -0.754031   -0.458881
 ---------------------------------------------------------------------
 Rotational constants (GHZ):    858.0774145    440.9843845    291.2861734

 **********************************************************************

            Population analysis using the SCF density.

 **********************************************************************

 Orbital symmetries:
       Occupied  (A1) (A1) (B2) (A1) (B1)
       Virtual   (A1) (B2) (B2) (A1) (B1) (A1) (B2) (A1) (A1) (A2)
                 (B1) (A1) (B2) (A1)
 The electronic state is 1-A1.
 Alpha  occ. eigenvalues --  -20.55790  -1.34610  -0.71418  -0.57083  -0.49821
 Alpha virt. eigenvalues --    0.21300   0.30684   1.03156   1.13339   1.16802
 Alpha virt. eigenvalues --    1.17845   1.38507   1.43126   2.02052   2.03061
 Alpha virt. eigenvalues --    2.06722   2.63550   2.96562   3.97762
          Condensed to atoms (all electrons):
              1          2          3
     1  O    8.332909   0.267902   0.267902
     2  H    0.267902   0.316231  -0.018491
     3  H    0.267902  -0.018491   0.316231
 Mulliken atomic charges:
              1
     1  O   -0.868714
     2  H    0.434357
     3  H    0.434357
 Sum of Mulliken atomic charges =   0.00000
 Mulliken charges with hydrogens summed into heavy atoms:
              1
     1  O    0.000000
 Sum of Mulliken charges with hydrogens summed into heavy atoms =   0.00000
 Electronic spatial extent (au):  <R**2>=             18.8122
 Charge=              0.0000 electrons
 Dipole moment (field-independent basis, Debye):
    X=              0.0000    Y=              0.0000    Z=             -2.1993  Tot=              2.1993
 Quadrupole moment (field-independent basis, Debye-Ang):
   XX=             -7.2059   YY=             -4.1063   ZZ=             -6.0004
   XY=              0.0000   XZ=              0.0000   YZ=              0.0000
 Traceless Quadrupole moment (field-independent basis, Debye-Ang):
   XX=             -1.4350   YY=              1.6646   ZZ=             -0.2296
   XY=              0.0000   XZ=              0.0000   YZ=              0.0000
 Octapole moment (field-independent basis, Debye-Ang**2):
  XXX=              0.0000  YYY=              0.0000  ZZZ=             -1.4307  XYY=              0.0000
  XXY=              0.0000  XXZ=             -0.3873  XZZ=              0.0000  YZZ=              0.0000
  YYZ=             -1.3550  XYZ=              0.0000
 Hexadecapole moment (field-independent basis, Debye-Ang**3):
 XXXX=             -5.1843 YYYY=             -5.3648 ZZZZ=             -5.9902 XXXY=              0.0000
 XXXZ=              0.0000 YYYX=              0.0000 YYYZ=              0.0000 ZZZX=              0.0000
 ZZZY=              0.0000 XXYY=             -2.0171 XXZZ=             -1.9088 YYZZ=             -1.5811
 XXYZ=              0.0000 YYXZ=              0.0000 ZZXY=              0.0000
 N-N= 9.287738286757D+00 E-N=-1.990818505413D+02  KE= 7.585932792149D+01
 Symmetry A1   KE= 6.776025949325D+01
 Symmetry A2   KE= 7.079119366963D-35
 Symmetry B1   KE= 4.551639065882D+00
 Symmetry B2   KE= 3.547429362358D+00
 1|1|UNPC-PUB-7-042|FOpt|RHF|6-31G(d)|H2O1|CCLAB|10-May-2023|0||# hf/6-
 31g(d) opt freq||Title Card Required||0,1|O,-2.6657470735,-3.934689996
 8,0.|H,-1.7189221988,-3.9014485273,0.|H,-2.9504689271,-3.0310773559,0.
 ||Version=IA32W-G09RevA.02|State=1-A1|HF=-76.0107465|RMSD=2.714e-009|R
 MSF=7.193e-005|Dipole=0.4993973,0.7066308,0.|Quadrupole=0.7684896,0.29
 84073,-1.0668969,-0.6637358,0.,0.|PG=C02V [C2(O1),SGV(H2)]||@


 BOOKS ARE LIGHTHOUSES ERECTED IN THE GREAT SEA OF TIME.
     -- E.P.WHIPPLE
 Job cpu time:  0 days  0 hours  0 minutes  1.0 seconds.
 File lengths (MBytes):  RWF=      5 Int=      0 D2E=      0 Chk=      1 Scr=      1
 Normal termination of Gaussian 09 at Wed May 10 14:27:12 2023.
 Link1:  Proceeding to internal job step number  2.
 -----------------------------------------------------------------
 #N Geom=AllCheck Guess=TCheck SCRF=Check GenChk RHF/6-31G(d) Freq
 -----------------------------------------------------------------
 1/10=4,29=7,30=1,38=1,40=1/1,3;
 2/12=2,40=1/2;
 3/5=1,6=6,7=1,11=1,14=-4,16=1,25=1,30=1,70=2,71=2,116=1/1,2,3;
 4/5=101/1;
 5/5=2,98=1/2;
 8/6=4,10=90,11=11/1;
 10/13=10,15=4/2;
 11/6=3,8=1,9=11,15=111,16=1/1,2,10;
 10/6=1/2;
 6/7=2,8=2,9=2,10=2,18=1,28=1/1;
 7/8=1,10=1,25=1/1,2,3,16;
 1/10=4,30=1/3;
 99//99;
 -------------------
 Title Card Required
 -------------------
 Redundant internal coordinates taken from checkpoint file:
 D:\homework2\Problem3\6-31G(d).chk
 Charge =  0 Multiplicity = 1
 O,0,-2.6657470735,-3.9346899968,0.
 H,0,-1.7189221988,-3.9014485273,0.
 H,0,-2.9504689271,-3.0310773559,0.
 Recover connectivity data from disk.

 GradGradGradGradGradGradGradGradGradGradGradGradGradGradGradGradGradGrad
 Berny optimization.
 Initialization pass.
                           ----------------------------
                           !    Initial Parameters    !
                           ! (Angstroms and Degrees)  !
 --------------------------                            --------------------------
 ! Name  Definition              Value          Derivative Info.                !
 --------------------------------------------------------------------------------
 ! R1    R(1,2)                  0.9474         calculate D2E/DX2 analytically  !
 ! R2    R(1,3)                  0.9474         calculate D2E/DX2 analytically  !
 ! A1    A(2,1,3)              105.4785         calculate D2E/DX2 analytically  !
 --------------------------------------------------------------------------------
 Trust Radius=3.00D-01 FncErr=1.00D-07 GrdErr=1.00D-07
 Number of steps in this run=   2 maximum allowed number of steps=   2.
 GradGradGradGradGradGradGradGradGradGradGradGradGradGradGradGradGradGrad

                          Input orientation:                          
 ---------------------------------------------------------------------
 Center     Atomic      Atomic             Coordinates (Angstroms)
 Number     Number       Type             X           Y           Z
 ---------------------------------------------------------------------
      1          8           0       -2.665747   -3.934690    0.000000
      2          1           0       -1.718922   -3.901449    0.000000
      3          1           0       -2.950469   -3.031077    0.000000
 ---------------------------------------------------------------------
                    Distance matrix (angstroms):
                    1          2          3
     1  O    0.000000
     2  H    0.947408   0.000000
     3  H    0.947408   1.508063   0.000000
 Stoichiometry    H2O
 Framework group  C2V[C2(O),SGV(H2)]
 Deg. of freedom     2
 Full point group                 C2V     NOp   4
 Largest Abelian subgroup         C2V     NOp   4
 Largest concise Abelian subgroup C2      NOp   2
                         Standard orientation:                         
 ---------------------------------------------------------------------
 Center     Atomic      Atomic             Coordinates (Angstroms)
 Number     Number       Type             X           Y           Z
 ---------------------------------------------------------------------
      1          8           0        0.000000    0.000000    0.114720
      2          1           0        0.000000    0.754031   -0.458881
      3          1           0        0.000000   -0.754031   -0.458881
 ---------------------------------------------------------------------
 Rotational constants (GHZ):    858.0774145    440.9843845    291.2861734
 Standard basis: 6-31G(d) (6D, 7F)
 There are    10 symmetry adapted basis functions of A1  symmetry.
 There are     1 symmetry adapted basis functions of A2  symmetry.
 There are     3 symmetry adapted basis functions of B1  symmetry.
 There are     5 symmetry adapted basis functions of B2  symmetry.
 Integral buffers will be    262144 words long.
 Raffenetti 1 integral format.
 Two-electron integral symmetry is turned on.
    19 basis functions,    36 primitive gaussians,    19 cartesian basis functions
     5 alpha electrons        5 beta electrons
       nuclear repulsion energy         9.2877382868 Hartrees.
 NAtoms=    3 NActive=    3 NUniq=    2 SFac= 1.69D+00 NAtFMM=   80 NAOKFM=F Big=F
 One-electron integrals computed using PRISM.
 NBasis=    19 RedAO= T  NBF=    10     1     3     5
 NBsUse=    19 1.00D-06 NBFU=    10     1     3     5
 Initial guess read from the checkpoint file:  D:\homework2\Problem3\6-31G(d).chk
 B after Tr=     0.000000    0.000000    0.000000
         Rot=    1.000000    0.000000    0.000000    0.000000 Ang=   0.00 deg.
 Initial guess orbital symmetries:
       Occupied  (A1) (A1) (B2) (A1) (B1)
       Virtual   (A1) (B2) (B2) (A1) (B1) (A1) (B2) (A1) (A1) (A2)
                 (B1) (A1) (B2) (A1)
 Requested convergence on RMS density matrix=1.00D-08 within 128 cycles.
 Requested convergence on MAX density matrix=1.00D-06.
 Requested convergence on             energy=1.00D-06.
 No special actions if energy rises.
 Keep R1 ints in memory in canonical form, NReq=857897.
 SCF Done:  E(RHF) =  -76.0107464887     A.U. after    1 cycles
             Convg  =    0.1878D-09             -V/T =  2.0020
 Range of M.O.s used for correlation:     1    19
 NBasis=    19 NAE=     5 NBE=     5 NFC=     0 NFV=     0
 NROrb=     19 NOA=     5 NOB=     5 NVA=    14 NVB=    14
          Differentiating once with respect to electric field.
                with respect to dipole field.
          Electric field/nuclear overlap derivatives assumed to be zero.
          Keep R1 ints in memory in canonical form, NReq=838428.
          There are     3 degrees of freedom in the 1st order CPHF.  IDoFFX=0.
      3 vectors produced by pass  0 Test12= 2.33D-15 3.33D-08 XBig12= 1.15D+00 7.36D-01.
 AX will form     3 AO Fock derivatives at one time.
      3 vectors produced by pass  1 Test12= 2.33D-15 3.33D-08 XBig12= 5.13D-02 1.20D-01.
      3 vectors produced by pass  2 Test12= 2.33D-15 3.33D-08 XBig12= 6.16D-03 3.40D-02.
      3 vectors produced by pass  3 Test12= 2.33D-15 3.33D-08 XBig12= 2.39D-04 7.95D-03.
      3 vectors produced by pass  4 Test12= 2.33D-15 3.33D-08 XBig12= 2.26D-06 9.07D-04.
      3 vectors produced by pass  5 Test12= 2.33D-15 3.33D-08 XBig12= 1.88D-08 6.63D-05.
      3 vectors produced by pass  6 Test12= 2.33D-15 3.33D-08 XBig12= 2.29D-10 7.07D-06.
      2 vectors produced by pass  7 Test12= 2.33D-15 3.33D-08 XBig12= 1.32D-12 5.11D-07.
      1 vectors produced by pass  8 Test12= 2.33D-15 3.33D-08 XBig12= 6.61D-15 4.09D-08.
 Inverted reduced A of dimension    24 with in-core refinement.
 End of Minotr Frequency-dependent properties file   721 does not exist.
 End of Minotr Frequency-dependent properties file   722 does not exist.
 Symmetrizing basis deriv contribution to polar:
 IMax=3 JMax=2 DiffMx= 0.00D+00
 G2DrvN: will do     4 centers at a time, making    1 passes doing MaxLOS=2.
 Calling FoFCou, ICntrl=  3107 FMM=F I1Cent=   0 AccDes= 0.00D+00.
 FoFDir/FoFCou used for L=0 through L=2.
 End of G2Drv Frequency-dependent properties file   721 does not exist.
 End of G2Drv Frequency-dependent properties file   722 does not exist.
          IDoAtm=111
          Differentiating once with respect to electric field.
                with respect to dipole field.
          Differentiating once with respect to nuclear coordinates.
          Keep R1 ints in memory in canonical form, NReq=838463.
          There are     9 degrees of freedom in the 1st order CPHF.  IDoFFX=4.
 Will reuse    3 saved solutions.
      6 vectors produced by pass  0 Test12= 7.78D-16 1.11D-08 XBig12= 3.62D-02 1.07D-01.
 AX will form     6 AO Fock derivatives at one time.
      6 vectors produced by pass  1 Test12= 7.78D-16 1.11D-08 XBig12= 4.24D-03 3.99D-02.
      6 vectors produced by pass  2 Test12= 7.78D-16 1.11D-08 XBig12= 2.02D-04 8.97D-03.
      6 vectors produced by pass  3 Test12= 7.78D-16 1.11D-08 XBig12= 1.17D-06 5.31D-04.
      6 vectors produced by pass  4 Test12= 7.78D-16 1.11D-08 XBig12= 6.21D-09 3.65D-05.
      6 vectors produced by pass  5 Test12= 7.78D-16 1.11D-08 XBig12= 1.57D-11 1.44D-06.
      2 vectors produced by pass  6 Test12= 7.78D-16 1.11D-08 XBig12= 6.91D-14 1.15D-07.
 Inverted reduced A of dimension    38 with in-core refinement.
 Isotropic polarizability for W=    0.000000        4.76 Bohr**3.
 End of Minotr Frequency-dependent properties file   721 does not exist.
 End of Minotr Frequency-dependent properties file   722 does not exist.

 **********************************************************************

            Population analysis using the SCF density.

 **********************************************************************

 Orbital symmetries:
       Occupied  (A1) (A1) (B2) (A1) (B1)
       Virtual   (A1) (B2) (B2) (A1) (B1) (A1) (B2) (A1) (A1) (A2)
                 (B1) (A1) (B2) (A1)
 The electronic state is 1-A1.
 Alpha  occ. eigenvalues --  -20.55790  -1.34610  -0.71418  -0.57083  -0.49821
 Alpha virt. eigenvalues --    0.21300   0.30684   1.03156   1.13339   1.16802
 Alpha virt. eigenvalues --    1.17845   1.38507   1.43126   2.02052   2.03061
 Alpha virt. eigenvalues --    2.06722   2.63550   2.96562   3.97762
          Condensed to atoms (all electrons):
              1          2          3
     1  O    8.332909   0.267902   0.267902
     2  H    0.267902   0.316231  -0.018491
     3  H    0.267902  -0.018491   0.316231
 Mulliken atomic charges:
              1
     1  O   -0.868714
     2  H    0.434357
     3  H    0.434357
 Sum of Mulliken atomic charges =   0.00000
 Mulliken charges with hydrogens summed into heavy atoms:
              1
     1  O    0.000000
 Sum of Mulliken charges with hydrogens summed into heavy atoms =   0.00000
 APT atomic charges:
              1
     1  O   -0.600347
     2  H    0.300174
     3  H    0.300174
 Sum of APT charges=   0.00000
 APT Atomic charges with hydrogens summed into heavy atoms:
              1
     1  O    0.000000
     2  H    0.000000
     3  H    0.000000
 Sum of APT charges=   0.00000
 Electronic spatial extent (au):  <R**2>=             18.8122
 Charge=              0.0000 electrons
 Dipole moment (field-independent basis, Debye):
    X=              0.0000    Y=              0.0000    Z=             -2.1993  Tot=              2.1993
 Quadrupole moment (field-independent basis, Debye-Ang):
   XX=             -7.2059   YY=             -4.1063   ZZ=             -6.0004
   XY=              0.0000   XZ=              0.0000   YZ=              0.0000
 Traceless Quadrupole moment (field-independent basis, Debye-Ang):
   XX=             -1.4350   YY=              1.6646   ZZ=             -0.2296
   XY=              0.0000   XZ=              0.0000   YZ=              0.0000
 Octapole moment (field-independent basis, Debye-Ang**2):
  XXX=              0.0000  YYY=              0.0000  ZZZ=             -1.4307  XYY=              0.0000
  XXY=              0.0000  XXZ=             -0.3873  XZZ=              0.0000  YZZ=              0.0000
  YYZ=             -1.3550  XYZ=              0.0000
 Hexadecapole moment (field-independent basis, Debye-Ang**3):
 XXXX=             -5.1843 YYYY=             -5.3648 ZZZZ=             -5.9902 XXXY=              0.0000
 XXXZ=              0.0000 YYYX=              0.0000 YYYZ=              0.0000 ZZZX=              0.0000
 ZZZY=              0.0000 XXYY=             -2.0171 XXZZ=             -1.9088 YYZZ=             -1.5811
 XXYZ=              0.0000 YYXZ=              0.0000 ZZXY=              0.0000
 N-N= 9.287738286757D+00 E-N=-1.990818505259D+02  KE= 7.585932791121D+01
 Symmetry A1   KE= 6.776025949289D+01
 Symmetry A2   KE= 6.071730807079D-35
 Symmetry B1   KE= 4.551639052159D+00
 Symmetry B2   KE= 3.547429366162D+00
  Exact polarizability:   2.778   0.000   6.680   0.000   0.000   4.809
 Approx polarizability:   2.363   0.000   5.341   0.000   0.000   4.007
 Calling FoFJK, ICntrl=    100127 FMM=F ISym2X=1 I1Cent= 0 IOpClX= 0 NMat=1 NMatS=1 NMatT=0.
 Full mass-weighted force constant matrix:
 Low frequencies ---   -0.0017    0.0015    0.0016   31.0200   37.4273   47.4791
 Low frequencies --- 1827.0143 4069.2807 4187.3467
 Diagonal vibrational polarizability:
        0.0000000       0.0890101       0.8939403
 Diagonal vibrational hyperpolarizability:
        0.0000000       0.0000000      -7.1730776
 Harmonic frequencies (cm**-1), IR intensities (KM/Mole), Raman scattering
 activities (A**4/AMU), depolarization ratios for plane and unpolarized
 incident light, reduced masses (AMU), force constants (mDyne/A),
 and normal coordinates:
                     1                      2                      3
                    A1                     A1                     B2
 Frequencies --  1827.0143              4069.2807              4187.3467
 Red. masses --     1.0823                 1.0455                 1.0828
 Frc consts  --     2.1285                10.2006                11.1863
 IR Inten    --   107.2145                18.1914                57.9941
 Raman Activ --     5.7294                75.5677                39.1212
 Depolar (P) --     0.5300                 0.1830                 0.7500
 Depolar (U) --     0.6928                 0.3093                 0.8571
  Atom  AN      X      Y      Z        X      Y      Z        X      Y      Z
     1   8     0.00   0.00   0.07     0.00   0.00   0.05     0.00   0.07   0.00
     2   1     0.00  -0.43  -0.56     0.00   0.58  -0.40     0.00  -0.56   0.43
     3   1     0.00   0.43  -0.56     0.00  -0.58  -0.40     0.00  -0.56  -0.43

 -------------------
 - Thermochemistry -
 -------------------
 Temperature   298.150 Kelvin.  Pressure   1.00000 Atm.
 Atom     1 has atomic number  8 and mass  15.99491
 Atom     2 has atomic number  1 and mass   1.00783
 Atom     3 has atomic number  1 and mass   1.00783
 Molecular mass:    18.01056 amu.
 Principal axes and moments of inertia in atomic units:
                           1         2         3
     Eigenvalues --     2.10324   4.09253   6.19577
           X            0.00000   0.00000   1.00000
           Y            1.00000   0.00000   0.00000
           Z            0.00000   1.00000   0.00000
 This molecule is an asymmetric top.
 Rotational symmetry number  2.
 Rotational temperatures (Kelvin)     41.18117    21.16389    13.97951
 Rotational constants (GHZ):         858.07741   440.98438   291.28617
 Zero-point vibrational energy      60313.6 (Joules/Mol)
                                   14.41529 (Kcal/Mol)
 Vibrational temperatures:   2628.66  5854.78  6024.65
          (Kelvin)
 
 Zero-point correction=                           0.022972 (Hartree/Particle)
 Thermal correction to Energy=                    0.025806
 Thermal correction to Enthalpy=                  0.026750
 Thermal correction to Gibbs Free Energy=         0.005375
 Sum of electronic and zero-point Energies=            -75.987774
 Sum of electronic and thermal Energies=               -75.984940
 Sum of electronic and thermal Enthalpies=             -75.983996
 Sum of electronic and thermal Free Energies=          -76.005371
 
                     E (Thermal)             CV                S
                      KCal/Mol        Cal/Mol-Kelvin    Cal/Mol-Kelvin
 Total                   16.194              5.985             44.988
 Electronic               0.000              0.000              0.000
 Translational            0.889              2.981             34.608
 Rotational               0.889              2.981             10.377
 Vibrational             14.416              0.023              0.003
                       Q            Log10(Q)             Ln(Q)
 Total Bot       0.337013D-02         -2.472353         -5.692804
 Total V=0       0.124198D+09          8.094115         18.637388
 Vib (Bot)       0.271392D-10        -10.566403        -24.330043
 Vib (V=0)       0.100015D+01          0.000064          0.000148
 Electronic      0.100000D+01          0.000000          0.000000
 Translational   0.300432D+07          6.477746         14.915562
 Rotational      0.413337D+02          1.616304          3.721678
 ***** Axes restored to original set *****
 -------------------------------------------------------------------
 Center     Atomic                   Forces (Hartrees/Bohr)
 Number     Number              X              Y              Z
 -------------------------------------------------------------------
      1        8           0.000095536    0.000135180    0.000000000
      2        1          -0.000090473   -0.000037409    0.000000000
      3        1          -0.000005063   -0.000097771    0.000000000
 -------------------------------------------------------------------
 Cartesian Forces:  Max     0.000135180 RMS     0.000071934

 GradGradGradGradGradGradGradGradGradGradGradGradGradGradGradGradGradGrad
 Berny optimization.
 Internal  Forces:  Max     0.000091730 RMS     0.000082826
 Search for a local minimum.
 Step number   1 out of a maximum of    2
 All quantities printed in internal units (Hartrees-Bohrs-Radians)
 Second derivative matrix not updated -- analytic derivatives used.
 The second derivative matrix:
                          R1        R2        A1
           R1           0.61247
           R2          -0.00683   0.61247
           A1           0.02846   0.02846   0.19155
     Eigenvalues ---    0.18767   0.60951   0.61930
 Angle between quadratic step and forces=  31.88 degrees.
 Linear search not attempted -- first point.
 Iteration  1 RMS(Cart)=  0.00018069 RMS(Int)=  0.00000003
 Iteration  2 RMS(Cart)=  0.00000003 RMS(Int)=  0.00000000
 ClnCor:  largest displacement from symmetrization is 3.20D-15 for atom     1.
 Variable       Old X    -DE/DX   Delta X   Delta X   Delta X     New X
                                 (Linear)    (Quad)   (Total)
    R1        1.79034  -0.00009   0.00000  -0.00017  -0.00017   1.79017
    R2        1.79034  -0.00009   0.00000  -0.00017  -0.00017   1.79017
    A1        1.84095   0.00006   0.00000   0.00037   0.00037   1.84132
         Item               Value     Threshold  Converged?
 Maximum Force            0.000092     0.000450     YES
 RMS     Force            0.000083     0.000300     YES
 Maximum Displacement     0.000199     0.001800     YES
 RMS     Displacement     0.000181     0.001200     YES
 Predicted change in Energy=-2.681774D-08
 Optimization completed.
    -- Stationary point found.
                           ----------------------------
                           !   Optimized Parameters   !
                           ! (Angstroms and Degrees)  !
 --------------------------                            --------------------------
 ! Name  Definition              Value          Derivative Info.                !
 --------------------------------------------------------------------------------
 ! R1    R(1,2)                  0.9474         -DE/DX =   -0.0001              !
 ! R2    R(1,3)                  0.9474         -DE/DX =   -0.0001              !
 ! A1    A(2,1,3)              105.4785         -DE/DX =    0.0001              !
 --------------------------------------------------------------------------------
 GradGradGradGradGradGradGradGradGradGradGradGradGradGradGradGradGradGrad

 1|1|UNPC-PUB-7-042|Freq|RHF|6-31G(d)|H2O1|CCLAB|10-May-2023|0||#N Geom
 =AllCheck Guess=TCheck SCRF=Check GenChk RHF/6-31G(d) Freq||Title Card
  Required||0,1|O,-2.6657470735,-3.9346899968,0.|H,-1.7189221988,-3.901
 4485273,0.|H,-2.9504689271,-3.0310773559,0.||Version=IA32W-G09RevA.02|
 State=1-A1|HF=-76.0107465|RMSD=1.878e-010|RMSF=7.193e-005|ZeroPoint=0.
 0229722|Thermal=0.025806|Dipole=0.4993973,0.7066308,0.|DipoleDeriv=-0.
 5130064,0.0328193,0.,0.0328193,-0.4897625,0.,0.,0.,-0.7982735,0.181469
 4,-0.0228989,0.,-0.0630621,0.3199151,0.,0.,0.,0.3991367,0.331537,-0.00
 99204,0.,0.0302428,0.1698474,0.,0.,0.,0.3991367|Polar=6.0567982,-0.881
 5484,5.4324528,0.,0.,2.7783|PolarDeriv=-6.7494594,-1.2938163,0.5024598
 ,0.,0.,0.1740379,-1.8505347,0.8959095,-6.9887652,0.,0.,0.2462579,0.,0.
 ,0.,-1.0814707,-1.5302457,0.,7.5999986,-0.3482704,0.2698396,0.,0.,-0.1
 911525,0.7664797,1.2565805,0.2987899,0.,0.,-0.0495346,0.,0.,0.,1.65874
 74,-0.02501,0.,-0.8505392,1.6420867,-0.7722995,0.,0.,0.0171146,1.08405
 5,-2.15249,6.6899753,0.,0.,-0.1967233,0.,0.,0.,-0.5772767,1.5552557,0.
 |HyperPolar=23.4606373,2.5272127,-7.2844762,20.361526,0.,0.,0.,0.15513
 75,0.2195144,0.|PG=C02V [C2(O1),SGV(H2)]|NImag=0||0.70121370,-0.118057
 74,0.61760082,0.,0.,0.00015271,-0.59763328,0.00788285,0.,0.61290306,-0
 .06477841,-0.06177398,0.,0.00350098,0.05937551,0.,0.,-0.00007635,0.,0.
 ,0.00005653,-0.10358042,0.11017489,0.,-0.01526978,0.06127743,0.,0.1188
 5020,0.18283615,-0.55582684,0.,-0.01138383,0.00239847,0.,-0.17145232,0
 .55342837,0.,0.,-0.00007635,0.,0.,0.00001983,0.,0.,0.00005653||-0.0000
 9554,-0.00013518,0.,0.00009047,0.00003741,0.,0.00000506,0.00009777,0.|
 ||@


 BOOKS ARE LIGHTHOUSES ERECTED IN THE GREAT SEA OF TIME.
     -- E.P.WHIPPLE
 Job cpu time:  0 days  0 hours  0 minutes  1.0 seconds.
 File lengths (MBytes):  RWF=      5 Int=      0 D2E=      0 Chk=      1 Scr=      1
 Normal termination of Gaussian 09 at Wed May 10 14:27:13 2023.
