 Entering Link 1 = C:\G09W\l1.exe PID=     11900.
  
 Copyright (c) 1988,1990,1992,1993,1995,1998,2003,2009, Gaussian, Inc.
                  All Rights Reserved.
  
 This is part of the Gaussian(R) 09 program.  It is based on
 the Gaussian(R) 03 system (copyright 2003, Gaussian, Inc.),
 the Gaussian(R) 98 system (copyright 1998, Gaussian, Inc.),
 the Gaussian(R) 94 system (copyright 1995, Gaussian, Inc.),
 the Gaussian 92(TM) system (copyright 1992, Gaussian, Inc.),
 the Gaussian 90(TM) system (copyright 1990, Gaussian, Inc.),
 the Gaussian 88(TM) system (copyright 1988, Gaussian, Inc.),
 the Gaussian 86(TM) system (copyright 1986, Carnegie Mellon
 University), and the Gaussian 82(TM) system (copyright 1983,
 Carnegie Mellon University). Gaussian is a federally registered
 trademark of Gaussian, Inc.
  
 This software contains proprietary and confidential information,
 including trade secrets, belonging to Gaussian, Inc.
  
 This software is provided under written license and may be
 used, copied, transmitted, or stored only in accord with that
 written license.
  
 The following legend is applicable only to US Government
 contracts under FAR:
  
                    RESTRICTED RIGHTS LEGEND
  
 Use, reproduction and disclosure by the US Government is
 subject to restrictions as set forth in subparagraphs (a)
 and (c) of the Commercial Computer Software - Restricted
 Rights clause in FAR 52.227-19.
  
 Gaussian, Inc.
 340 Quinnipiac St., Bldg. 40, Wallingford CT 06492
  
  
 ---------------------------------------------------------------
 Warning -- This program may not be used in any manner that
 competes with the business of Gaussian, Inc. or will provide
 assistance to any competitor of Gaussian, Inc.  The licensee
 of this program is prohibited from giving any competitor of
 Gaussian, Inc. access to this program.  By using this program,
 the user acknowledges that Gaussian, Inc. is engaged in the
 business of creating and licensing software in the field of
 computational chemistry and represents and warrants to the
 licensee that it is not a competitor of Gaussian, Inc. and that
 it will not use this program in any manner prohibited above.
 ---------------------------------------------------------------
  

 Cite this work as:
 Gaussian 09, Revision A.02,
 M. J. Frisch, G. W. Trucks, H. B. Schlegel, G. E. Scuseria, 
 M. A. Robb, J. R. Cheeseman, G. Scalmani, V. Barone, B. Mennucci, 
 G. A. Petersson, H. Nakatsuji, M. Caricato, X. Li, H. P. Hratchian, 
 A. F. Izmaylov, J. Bloino, G. Zheng, J. L. Sonnenberg, M. Hada, 
 M. Ehara, K. Toyota, R. Fukuda, J. Hasegawa, M. Ishida, T. Nakajima, 
 Y. Honda, O. Kitao, H. Nakai, T. Vreven, J. A. Montgomery, Jr., 
 J. E. Peralta, F. Ogliaro, M. Bearpark, J. J. Heyd, E. Brothers, 
 K. N. Kudin, V. N. Staroverov, R. Kobayashi, J. Normand, 
 K. Raghavachari, A. Rendell, J. C. Burant, S. S. Iyengar, J. Tomasi, 
 M. Cossi, N. Rega, J. M. Millam, M. Klene, J. E. Knox, J. B. Cross, 
 V. Bakken, C. Adamo, J. Jaramillo, R. Gomperts, R. E. Stratmann, 
 O. Yazyev, A. J. Austin, R. Cammi, C. Pomelli, J. W. Ochterski, 
 R. L. Martin, K. Morokuma, V. G. Zakrzewski, G. A. Voth, 
 P. Salvador, J. J. Dannenberg, S. Dapprich, A. D. Daniels, 
 O. Farkas, J. B. Foresman, J. V. Ortiz, J. Cioslowski, 
 and D. J. Fox, Gaussian, Inc., Wallingford CT, 2009.
 
 ******************************************
 Gaussian 09:  IA32W-G09RevA.02 11-Jun-2009
                10-May-2023 
 ******************************************
 %chk=D:\homework2\Problem2\2-scan.chk
 -----------------------------------------------------
 # scan rhf/6-311+g(d) guess=(mix,always) geom=nocrowd
 -----------------------------------------------------
 1/38=1,60=1/1,8;
 2/12=1,17=6,18=5,29=3,40=1/2;
 3/5=4,6=6,7=11,11=1,16=1,25=1,30=1,116=1/1,2,3;
 4/13=-1/1;
 5/5=2,38=5/2;
 6/7=2,8=2,9=2,10=2,18=1,28=1/1;
 1/60=1/8(1);
 99/9=1/99;
 2/12=1,29=3/2;
 3/5=4,6=6,7=11,11=1,16=1,25=1,30=1,116=1/1,2,3;
 4/13=-1/1;
 5/5=2,38=5/2;
 1/60=1/8(-4);
 99/9=1/99;
 -------------------
 Title Card Required
 -------------------
 Symbolic Z-matrix:
 Charge =  0 Multiplicity = 1
 C
 H                    1    B1
 H                    1    B2       2    A1
 H                    1    B3       2    A2       3    D1       0
 O                    1    B4       2    A3       3    D2       0
 H                    5    B5       1    A4       2    D3       0
       Variables:
  B1                    1.08006                  
  B2                    1.08668                  
  B3                    1.08668                  
  B4                    1.39857                  
  B5                    0.93964                  
  A1                  108.54281                  
  A2                  108.54391                  
  A3                  107.15078                  
  A4                  110.81316                  
  D1                  118.20498                  
  D2                 -120.89786                  
  D3                  179.94397Scan 60   -6.     
 
 Scan the potential surface.
 Variable   Value     No. Steps Step-Size
 -------- ----------- --------- ---------
    12     179.943972      60     -6.0000
 A total of     61 points will be computed.
 ---------------------------------------------------------------------------------------------------
                            Z-MATRIX (ANGSTROMS AND DEGREES)
   CD    Cent   Atom    N1       Length/X        N2       Alpha/Y        N3        Beta/Z          J
 ---------------------------------------------------------------------------------------------------
      1      1  C 
      2      2  H        1   1.080060(     1)
      3      3  H        1   1.086683(     2)      2  108.543(     6)
      4      4  H        1   1.086684(     3)      2  108.544(     7)      3  118.205(    10)      0
      5      5  O        1   1.398571(     4)      2  107.151(     8)      3 -120.898(    11)      0
      6      6  H        5   0.939638(     5)      1  110.813(     9)      2  179.944(    12)      0
 ---------------------------------------------------------------------------------------------------
                         Z-Matrix orientation:                         
 ---------------------------------------------------------------------
 Center     Atomic      Atomic             Coordinates (Angstroms)
 Number     Number       Type             X           Y           Z
 ---------------------------------------------------------------------
      1          6           0        0.000000    0.000000    0.000000
      2          1           0        0.000000    0.000000    1.080060
      3          1           0        1.030269    0.000000   -0.345580
      4          1           0       -0.486931   -0.907932   -0.345600
      5          8           0       -0.686243    1.146726   -0.412421
      6          1           0       -0.716327    1.198670   -1.350140
 ---------------------------------------------------------------------
                    Distance matrix (angstroms):
                    1          2          3          4          5
     1  C    0.000000
     2  H    1.080060   0.000000
     3  H    1.086683   1.758949   0.000000
     4  H    1.086684   1.758962   1.768117   0.000000
     5  O    1.398571   2.003349   2.065396   2.065383   0.000000
     6  H    1.942373   2.802821   2.344473   2.345101   0.939638
                    6
     6  H    0.000000
 Stoichiometry    CH4O
 Framework group  C1[X(CH4O)]
 Deg. of freedom    12
 Full point group                 C1      NOp   1
 Largest Abelian subgroup         C1      NOp   1
 Largest concise Abelian subgroup C1      NOp   1
                         Standard orientation:                         
 ---------------------------------------------------------------------
 Center     Atomic      Atomic             Coordinates (Angstroms)
 Number     Number       Type             X           Y           Z
 ---------------------------------------------------------------------
      1          6           0        0.656558   -0.020267    0.000003
      2          1           0        1.076654    0.974744   -0.001019
      3          1           0        1.009449   -0.545283   -0.883573
      4          1           0        1.009603   -0.543554    0.884543
      5          8           0       -0.735003    0.119581    0.000002
      6          1           0       -1.155030   -0.720953    0.000013
 ---------------------------------------------------------------------
 Rotational constants (GHZ):    131.8346652     25.4294193     24.5848488
 Standard basis: 6-311+G(d) (5D, 7F)
 There are    56 symmetry adapted basis functions of A   symmetry.
 Integral buffers will be    262144 words long.
 Raffenetti 1 integral format.
 Two-electron integral symmetry is turned on.
    56 basis functions,    92 primitive gaussians,    58 cartesian basis functions
     9 alpha electrons        9 beta electrons
       nuclear repulsion energy        40.8387688258 Hartrees.
 NAtoms=    6 NActive=    6 NUniq=    6 SFac= 7.50D-01 NAtFMM=   80 NAOKFM=F Big=F
 One-electron integrals computed using PRISM.
 NBasis=    56 RedAO= T  NBF=    56
 NBsUse=    56 1.00D-06 NBFU=    56
 Harris functional with IExCor=  205 diagonalized for initial guess.
 ExpMin= 4.38D-02 ExpMax= 8.59D+03 ExpMxC= 1.30D+03 IAcc=2 IRadAn=         0 AccDes= 0.00D+00
 HarFok:  IExCor=  205 AccDes= 0.00D+00 IRadAn=         0 IDoV= 1
 ScaDFX=  1.000000  1.000000  1.000000  1.000000
 FoFCou: FMM=F IPFlag=           0 FMFlag=      100000 FMFlg1=           0
         NFxFlg=           0 DoJE=T BraDBF=F KetDBF=T FulRan=T
         Omega=  0.000000  0.000000  1.000000  0.000000  0.000000 ICntrl=     500 IOpCl=  0
         NMat0=    1 NMatS0=    1 NMatT0=    0 NMatD0=    1 NMtDS0=    0 NMtDT0=    0
         I1Cent=           4 NGrid=           0.
 Petite list used in FoFCou.
 Mixing orbitals, IMix= 1 IMixAn=  0 NRI=1 NE=    9 Coef=  7.07106781D-01  7.07106781D-01
 Initial guess orbital symmetries:
       Occupied  (A) (A) (A) (A) (A) (A) (A) (A) (A)
       Virtual   (A) (A) (A) (A) (A) (A) (A) (A) (A) (A) (A) (A)
                 (A) (A) (A) (A) (A) (A) (A) (A) (A) (A) (A) (A)
                 (A) (A) (A) (A) (A) (A) (A) (A) (A) (A) (A) (A)
                 (A) (A) (A) (A) (A) (A) (A) (A) (A) (A) (A)
 The electronic state of the initial guess is 1-A.
 Requested convergence on RMS density matrix=1.00D-08 within 128 cycles.
 Requested convergence on MAX density matrix=1.00D-06.
 Requested convergence on             energy=1.00D-06.
 No special actions if energy rises.
 Keep R1 ints in memory in canonical form, NReq=2313571.
 SCF Done:  E(RHF) =  -115.068333391     A.U. after   13 cycles
             Convg  =    0.3735D-08             -V/T =  1.9996

 **********************************************************************

            Population analysis using the SCF density.

 **********************************************************************

 Orbital symmetries:
       Occupied  (A) (A) (A) (A) (A) (A) (A) (A) (A)
       Virtual   (A) (A) (A) (A) (A) (A) (A) (A) (A) (A) (A) (A)
                 (A) (A) (A) (A) (A) (A) (A) (A) (A) (A) (A) (A)
                 (A) (A) (A) (A) (A) (A) (A) (A) (A) (A) (A) (A)
                 (A) (A) (A) (A) (A) (A) (A) (A) (A) (A) (A)
 The electronic state is 1-A.
 Alpha  occ. eigenvalues --  -20.55471 -11.26881  -1.37166  -0.93332  -0.70315
 Alpha  occ. eigenvalues --   -0.62665  -0.60281  -0.50233  -0.45000
 Alpha virt. eigenvalues --    0.07022   0.08922   0.10576   0.10616   0.24136
 Alpha virt. eigenvalues --    0.26193   0.27893   0.28473   0.30202   0.31699
 Alpha virt. eigenvalues --    0.32331   0.36698   0.43504   0.54035   0.56314
 Alpha virt. eigenvalues --    0.71176   0.75289   0.80915   0.81944   0.88016
 Alpha virt. eigenvalues --    1.09318   1.25159   1.29700   1.30570   1.55441
 Alpha virt. eigenvalues --    1.65052   1.79902   1.82727   1.83810   2.05361
 Alpha virt. eigenvalues --    2.48345   2.75445   2.78085   2.78301   3.16045
 Alpha virt. eigenvalues --    3.28549   3.38178   3.43256   3.52659   3.59093
 Alpha virt. eigenvalues --    3.83582   4.30666   5.54199   5.66803   5.98856
 Alpha virt. eigenvalues --   24.64303  51.55508
          Condensed to atoms (all electrons):
              1          2          3          4          5          6
     1  C    5.229840   0.406561   0.403945   0.403950   0.105741  -0.027870
     2  H    0.406561   0.475269  -0.034762  -0.034778  -0.054246   0.008300
     3  H    0.403945  -0.034762   0.527637  -0.044336  -0.046642  -0.005166
     4  H    0.403950  -0.034778  -0.044336   0.527619  -0.046647  -0.005163
     5  O    0.105741  -0.054246  -0.046642  -0.046647   8.286372   0.243086
     6  H   -0.027870   0.008300  -0.005166  -0.005163   0.243086   0.409313
 Mulliken atomic charges:
              1
     1  C   -0.522168
     2  H    0.233656
     3  H    0.199323
     4  H    0.199355
     5  O   -0.487665
     6  H    0.377500
 Sum of Mulliken atomic charges =   0.00000
 Mulliken charges with hydrogens summed into heavy atoms:
              1
     1  C    0.110165
     5  O   -0.110165
 Sum of Mulliken charges with hydrogens summed into heavy atoms =   0.00000
 Electronic spatial extent (au):  <R**2>=             83.1921
 Charge=              0.0000 electrons
 Dipole moment (field-independent basis, Debye):
    X=              0.9620    Y=             -1.7762    Z=             -0.0001  Tot=              2.0200
 Quadrupole moment (field-independent basis, Debye-Ang):
   XX=            -12.9183   YY=            -12.2491   ZZ=            -13.8043
   XY=              2.5666   XZ=             -0.0002   YZ=             -0.0001
 Traceless Quadrupole moment (field-independent basis, Debye-Ang):
   XX=              0.0722   YY=              0.7415   ZZ=             -0.8137
   XY=              2.5666   XZ=             -0.0002   YZ=             -0.0001
 Octapole moment (field-independent basis, Debye-Ang**2):
  XXX=             -4.1427  YYY=             -0.7206  ZZZ=              0.0014  XYY=             -1.5673
  XXY=             -2.7083  XXZ=             -0.0002  XZZ=             -0.2625  YZZ=             -0.8061
  YYZ=             -0.0017  XYZ=             -0.0002
 Hexadecapole moment (field-independent basis, Debye-Ang**3):
 XXXX=            -60.1179 YYYY=            -19.6572 ZZZZ=            -19.6963 XXXY=              4.6027
 XXXZ=             -0.0005 YYYX=              3.2330 YYYZ=             -0.0002 ZZZX=              0.0014
 ZZZY=             -0.0001 XXYY=            -12.4286 XXZZ=            -14.2133 YYZZ=             -6.6622
 XXYZ=             -0.0004 YYXZ=             -0.0019 ZZXY=              0.0596
 N-N= 4.083876882585D+01 E-N=-3.528961321631D+02  KE= 1.151088082224D+02
 Variable Step   Value    
 -------- ---- -----------
    12       1    3.035895
 ---------------------------------------------------------------------------------------------------
                            Z-MATRIX (ANGSTROMS AND DEGREES)
   CD    Cent   Atom    N1       Length/X        N2       Alpha/Y        N3        Beta/Z          J
 ---------------------------------------------------------------------------------------------------
      1      1  C 
      2      2  H        1   1.080060(     1)
      3      3  H        1   1.086683(     2)      2  108.543(     6)
      4      4  H        1   1.086684(     3)      2  108.544(     7)      3  118.205(    10)      0
      5      5  O        1   1.398571(     4)      2  107.151(     8)      3 -120.898(    11)      0
      6      6  H        5   0.939638(     5)      1  110.813(     9)      2  173.944(    12)      0
 ---------------------------------------------------------------------------------------------------
                         Z-Matrix orientation:                         
 ---------------------------------------------------------------------
 Center     Atomic      Atomic             Coordinates (Angstroms)
 Number     Number       Type             X           Y           Z
 ---------------------------------------------------------------------
      1          6           0        0.000000    0.000000    0.000000
      2          1           0        0.000000    0.000000    1.080060
      3          1           0        1.030269    0.000000   -0.345580
      4          1           0       -0.486931   -0.907932   -0.345600
      5          8           0       -0.686243    1.146726   -0.412421
      6          1           0       -0.638293    1.247053   -1.345456
 ---------------------------------------------------------------------
                    Distance matrix (angstroms):
                    1          2          3          4          5
     1  C    0.000000
     2  H    1.080060   0.000000
     3  H    1.086683   1.758949   0.000000
     4  H    1.086684   1.758962   1.768117   0.000000
     5  O    1.398571   2.003349   2.065396   2.065383   0.000000
     6  H    1.942373   2.801015   2.310627   2.380459   0.939638
                    6
     6  H    0.000000
 Stoichiometry    CH4O
 Framework group  C1[X(CH4O)]
 Deg. of freedom    12
 Full point group                 C1      NOp   1
 Largest Abelian subgroup         C1      NOp   1
 Largest concise Abelian subgroup C1      NOp   1
                         Standard orientation:                         
 ---------------------------------------------------------------------
 Center     Atomic      Atomic             Coordinates (Angstroms)
 Number     Number       Type             X           Y           Z
 ---------------------------------------------------------------------
      1          6           0        0.656560   -0.020259    0.000230
      2          1           0        1.076065    0.968643   -0.112092
      3          1           0        1.000236   -0.637289   -0.825628
      4          1           0        1.019373   -0.445796    0.931984
      5          8           0       -0.734999    0.119613    0.000157
      6          1           0       -1.155040   -0.720909    0.003100
 ---------------------------------------------------------------------
 Rotational constants (GHZ):    131.8357795     25.4297718     24.5845248
 Standard basis: 6-311+G(d) (5D, 7F)
 There are    56 symmetry adapted basis functions of A   symmetry.
 Integral buffers will be    262144 words long.
 Raffenetti 1 integral format.
 Two-electron integral symmetry is turned on.
    56 basis functions,    92 primitive gaussians,    58 cartesian basis functions
     9 alpha electrons        9 beta electrons
       nuclear repulsion energy        40.8388449714 Hartrees.
 NAtoms=    6 NActive=    6 NUniq=    6 SFac= 7.50D-01 NAtFMM=   80 NAOKFM=F Big=F
 One-electron integrals computed using PRISM.
 NBasis=    56 RedAO= T  NBF=    56
 NBsUse=    56 1.00D-06 NBFU=    56
 Harris functional with IExCor=  205 diagonalized for initial guess.
 ExpMin= 4.38D-02 ExpMax= 8.59D+03 ExpMxC= 1.30D+03 IAcc=2 IRadAn=         0 AccDes= 0.00D+00
 HarFok:  IExCor=  205 AccDes= 0.00D+00 IRadAn=         0 IDoV= 1
 ScaDFX=  1.000000  1.000000  1.000000  1.000000
 FoFCou: FMM=F IPFlag=           0 FMFlag=      100000 FMFlg1=           0
         NFxFlg=           0 DoJE=T BraDBF=F KetDBF=T FulRan=T
         Omega=  0.000000  0.000000  1.000000  0.000000  0.000000 ICntrl=     500 IOpCl=  0
         NMat0=    1 NMatS0=    1 NMatT0=    0 NMatD0=    1 NMtDS0=    0 NMtDT0=    0
         I1Cent=           4 NGrid=           0.
 Petite list used in FoFCou.
 Mixing orbitals, IMix= 1 IMixAn=  0 NRI=1 NE=    9 Coef=  7.07106781D-01  7.07106781D-01
 Initial guess orbital symmetries:
       Occupied  (A) (A) (A) (A) (A) (A) (A) (A) (A)
       Virtual   (A) (A) (A) (A) (A) (A) (A) (A) (A) (A) (A) (A)
                 (A) (A) (A) (A) (A) (A) (A) (A) (A) (A) (A) (A)
                 (A) (A) (A) (A) (A) (A) (A) (A) (A) (A) (A) (A)
                 (A) (A) (A) (A) (A) (A) (A) (A) (A) (A) (A)
 The electronic state of the initial guess is 1-A.
 Requested convergence on RMS density matrix=1.00D-08 within 128 cycles.
 Requested convergence on MAX density matrix=1.00D-06.
 Requested convergence on             energy=1.00D-06.
 No special actions if energy rises.
 Keep R1 ints in memory in canonical form, NReq=2313571.
 SCF Done:  E(RHF) =  -115.068284982     A.U. after   13 cycles
             Convg  =    0.3769D-08             -V/T =  1.9996
 Variable Step   Value    
 -------- ---- -----------
    12       2    2.931175
 ---------------------------------------------------------------------------------------------------
                            Z-MATRIX (ANGSTROMS AND DEGREES)
   CD    Cent   Atom    N1       Length/X        N2       Alpha/Y        N3        Beta/Z          J
 ---------------------------------------------------------------------------------------------------
      1      1  C 
      2      2  H        1   1.080060(     1)
      3      3  H        1   1.086683(     2)      2  108.543(     6)
      4      4  H        1   1.086684(     3)      2  108.544(     7)      3  118.205(    10)      0
      5      5  O        1   1.398571(     4)      2  107.151(     8)      3 -120.898(    11)      0
      6      6  H        5   0.939638(     5)      1  110.813(     9)      2  167.944(    12)      0
 ---------------------------------------------------------------------------------------------------
                         Z-Matrix orientation:                         
 ---------------------------------------------------------------------
 Center     Atomic      Atomic             Coordinates (Angstroms)
 Number     Number       Type             X           Y           Z
 ---------------------------------------------------------------------
      1          6           0        0.000000    0.000000    0.000000
      2          1           0        0.000000    0.000000    1.080060
      3          1           0        1.030269    0.000000   -0.345580
      4          1           0       -0.486931   -0.907932   -0.345600
      5          8           0       -0.686243    1.146726   -0.412421
      6          1           0       -0.562580    1.297336   -1.331629
 ---------------------------------------------------------------------
                    Distance matrix (angstroms):
                    1          2          3          4          5
     1  C    0.000000
     2  H    1.080060   0.000000
     3  H    1.086683   1.758949   0.000000
     4  H    1.086684   1.758962   1.768117   0.000000
     5  O    1.398571   2.003349   2.065396   2.065383   0.000000
     6  H    1.942373   2.795678   2.278715   2.416854   0.939638
                    6
     6  H    0.000000
 Stoichiometry    CH4O
 Framework group  C1[X(CH4O)]
 Deg. of freedom    12
 Full point group                 C1      NOp   1
 Largest Abelian subgroup         C1      NOp   1
 Largest concise Abelian subgroup C1      NOp   1
                         Standard orientation:                         
 ---------------------------------------------------------------------
 Center     Atomic      Atomic             Coordinates (Angstroms)
 Number     Number       Type             X           Y           Z
 ---------------------------------------------------------------------
      1          6           0        0.656564   -0.020236    0.000452
      2          1           0        1.074328    0.950672   -0.221670
      3          1           0        0.991672   -0.722415   -0.758184
      4          1           0        1.029582   -0.343727    0.968487
      5          8           0       -0.734987    0.119708    0.000327
      6          1           0       -1.155071   -0.720778    0.006038
 ---------------------------------------------------------------------
 Rotational constants (GHZ):    131.8390819     25.4308060     24.5835743
 Standard basis: 6-311+G(d) (5D, 7F)
 There are    56 symmetry adapted basis functions of A   symmetry.
 Integral buffers will be    262144 words long.
 Raffenetti 1 integral format.
 Two-electron integral symmetry is turned on.
    56 basis functions,    92 primitive gaussians,    58 cartesian basis functions
     9 alpha electrons        9 beta electrons
       nuclear repulsion energy        40.8390652694 Hartrees.
 NAtoms=    6 NActive=    6 NUniq=    6 SFac= 7.50D-01 NAtFMM=   80 NAOKFM=F Big=F
 One-electron integrals computed using PRISM.
 NBasis=    56 RedAO= T  NBF=    56
 NBsUse=    56 1.00D-06 NBFU=    56
 Harris functional with IExCor=  205 diagonalized for initial guess.
 ExpMin= 4.38D-02 ExpMax= 8.59D+03 ExpMxC= 1.30D+03 IAcc=2 IRadAn=         0 AccDes= 0.00D+00
 HarFok:  IExCor=  205 AccDes= 0.00D+00 IRadAn=         0 IDoV= 1
 ScaDFX=  1.000000  1.000000  1.000000  1.000000
 FoFCou: FMM=F IPFlag=           0 FMFlag=      100000 FMFlg1=           0
         NFxFlg=           0 DoJE=T BraDBF=F KetDBF=T FulRan=T
         Omega=  0.000000  0.000000  1.000000  0.000000  0.000000 ICntrl=     500 IOpCl=  0
         NMat0=    1 NMatS0=    1 NMatT0=    0 NMatD0=    1 NMtDS0=    0 NMtDT0=    0
         I1Cent=           4 NGrid=           0.
 Petite list used in FoFCou.
 Mixing orbitals, IMix= 1 IMixAn=  0 NRI=1 NE=    9 Coef=  7.07106781D-01  7.07106781D-01
 Initial guess orbital symmetries:
       Occupied  (A) (A) (A) (A) (A) (A) (A) (A) (A)
       Virtual   (A) (A) (A) (A) (A) (A) (A) (A) (A) (A) (A) (A)
                 (A) (A) (A) (A) (A) (A) (A) (A) (A) (A) (A) (A)
                 (A) (A) (A) (A) (A) (A) (A) (A) (A) (A) (A) (A)
                 (A) (A) (A) (A) (A) (A) (A) (A) (A) (A) (A)
 The electronic state of the initial guess is 1-A.
 Requested convergence on RMS density matrix=1.00D-08 within 128 cycles.
 Requested convergence on MAX density matrix=1.00D-06.
 Requested convergence on             energy=1.00D-06.
 No special actions if energy rises.
 Keep R1 ints in memory in canonical form, NReq=2313571.
 SCF Done:  E(RHF) =  -115.068145329     A.U. after   13 cycles
             Convg  =    0.3821D-08             -V/T =  1.9996
 Variable Step   Value    
 -------- ---- -----------
    12       3    2.826456
 ---------------------------------------------------------------------------------------------------
                            Z-MATRIX (ANGSTROMS AND DEGREES)
   CD    Cent   Atom    N1       Length/X        N2       Alpha/Y        N3        Beta/Z          J
 ---------------------------------------------------------------------------------------------------
      1      1  C 
      2      2  H        1   1.080060(     1)
      3      3  H        1   1.086683(     2)      2  108.543(     6)
      4      4  H        1   1.086684(     3)      2  108.544(     7)      3  118.205(    10)      0
      5      5  O        1   1.398571(     4)      2  107.151(     8)      3 -120.898(    11)      0
      6      6  H        5   0.939638(     5)      1  110.813(     9)      2  161.944(    12)      0
 ---------------------------------------------------------------------------------------------------
                         Z-Matrix orientation:                         
 ---------------------------------------------------------------------
 Center     Atomic      Atomic             Coordinates (Angstroms)
 Number     Number       Type             X           Y           Z
 ---------------------------------------------------------------------
      1          6           0        0.000000    0.000000    0.000000
      2          1           0        0.000000    0.000000    1.080060
      3          1           0        1.030269    0.000000   -0.345580
      4          1           0       -0.486931   -0.907932   -0.345600
      5          8           0       -0.686243    1.146726   -0.412421
      6          1           0       -0.490015    1.348968   -1.308810
 ---------------------------------------------------------------------
                    Distance matrix (angstroms):
                    1          2          3          4          5
     1  C    0.000000
     2  H    1.080060   0.000000
     3  H    1.086683   1.758949   0.000000
     4  H    1.086684   1.758962   1.768117   0.000000
     5  O    1.398571   2.003349   2.065396   2.065383   0.000000
     6  H    1.942373   2.786849   2.249176   2.453850   0.939638
                    6
     6  H    0.000000
 Stoichiometry    CH4O
 Framework group  C1[X(CH4O)]
 Deg. of freedom    12
 Full point group                 C1      NOp   1
 Largest Abelian subgroup         C1      NOp   1
 Largest concise Abelian subgroup C1      NOp   1
                         Standard orientation:                         
 ---------------------------------------------------------------------
 Center     Atomic      Atomic             Coordinates (Angstroms)
 Number     Number       Type             X           Y           Z
 ---------------------------------------------------------------------
      1          6           0       -0.656572    0.020199    0.000663
      2          1           0       -1.071461   -0.921164   -0.328321
      3          1           0       -0.983849    0.799587   -0.682217
      4          1           0       -1.040119    0.238735    0.993646
      5          8           0        0.734967   -0.119865    0.000528
      6          1           0        1.155122    0.720566    0.008690
 ---------------------------------------------------------------------
 Rotational constants (GHZ):    131.8445338     25.4324707     24.5820451
 Standard basis: 6-311+G(d) (5D, 7F)
 There are    56 symmetry adapted basis functions of A   symmetry.
 Integral buffers will be    262144 words long.
 Raffenetti 1 integral format.
 Two-electron integral symmetry is turned on.
    56 basis functions,    92 primitive gaussians,    58 cartesian basis functions
     9 alpha electrons        9 beta electrons
       nuclear repulsion energy        40.8394137789 Hartrees.
 NAtoms=    6 NActive=    6 NUniq=    6 SFac= 7.50D-01 NAtFMM=   80 NAOKFM=F Big=F
 One-electron integrals computed using PRISM.
 NBasis=    56 RedAO= T  NBF=    56
 NBsUse=    56 1.00D-06 NBFU=    56
 Harris functional with IExCor=  205 diagonalized for initial guess.
 ExpMin= 4.38D-02 ExpMax= 8.59D+03 ExpMxC= 1.30D+03 IAcc=2 IRadAn=         0 AccDes= 0.00D+00
 HarFok:  IExCor=  205 AccDes= 0.00D+00 IRadAn=         0 IDoV= 1
 ScaDFX=  1.000000  1.000000  1.000000  1.000000
 FoFCou: FMM=F IPFlag=           0 FMFlag=      100000 FMFlg1=           0
         NFxFlg=           0 DoJE=T BraDBF=F KetDBF=T FulRan=T
         Omega=  0.000000  0.000000  1.000000  0.000000  0.000000 ICntrl=     500 IOpCl=  0
         NMat0=    1 NMatS0=    1 NMatT0=    0 NMatD0=    1 NMtDS0=    0 NMtDT0=    0
         I1Cent=           4 NGrid=           0.
 Petite list used in FoFCou.
 Mixing orbitals, IMix= 1 IMixAn=  0 NRI=1 NE=    9 Coef=  7.07106781D-01  7.07106781D-01
 Initial guess orbital symmetries:
       Occupied  (A) (A) (A) (A) (A) (A) (A) (A) (A)
       Virtual   (A) (A) (A) (A) (A) (A) (A) (A) (A) (A) (A) (A)
                 (A) (A) (A) (A) (A) (A) (A) (A) (A) (A) (A) (A)
                 (A) (A) (A) (A) (A) (A) (A) (A) (A) (A) (A) (A)
                 (A) (A) (A) (A) (A) (A) (A) (A) (A) (A) (A)
 The electronic state of the initial guess is 1-A.
 Requested convergence on RMS density matrix=1.00D-08 within 128 cycles.
 Requested convergence on MAX density matrix=1.00D-06.
 Requested convergence on             energy=1.00D-06.
 No special actions if energy rises.
 Keep R1 ints in memory in canonical form, NReq=2313571.
 SCF Done:  E(RHF) =  -115.067925461     A.U. after   13 cycles
             Convg  =    0.3842D-08             -V/T =  1.9996
 Variable Step   Value    
 -------- ---- -----------
    12       4    2.721736
 ---------------------------------------------------------------------------------------------------
                            Z-MATRIX (ANGSTROMS AND DEGREES)
   CD    Cent   Atom    N1       Length/X        N2       Alpha/Y        N3        Beta/Z          J
 ---------------------------------------------------------------------------------------------------
      1      1  C 
      2      2  H        1   1.080060(     1)
      3      3  H        1   1.086683(     2)      2  108.543(     6)
      4      4  H        1   1.086684(     3)      2  108.544(     7)      3  118.205(    10)      0
      5      5  O        1   1.398571(     4)      2  107.151(     8)      3 -120.898(    11)      0
      6      6  H        5   0.939638(     5)      1  110.813(     9)      2  155.944(    12)      0
 ---------------------------------------------------------------------------------------------------
                         Z-Matrix orientation:                         
 ---------------------------------------------------------------------
 Center     Atomic      Atomic             Coordinates (Angstroms)
 Number     Number       Type             X           Y           Z
 ---------------------------------------------------------------------
      1          6           0        0.000000    0.000000    0.000000
      2          1           0        0.000000    0.000000    1.080060
      3          1           0        1.030269    0.000000   -0.345580
      4          1           0       -0.486931   -0.907932   -0.345600
      5          8           0       -0.686243    1.146726   -0.412421
      6          1           0       -0.421396    1.401383   -1.277248
 ---------------------------------------------------------------------
                    Distance matrix (angstroms):
                    1          2          3          4          5
     1  C    0.000000
     2  H    1.080060   0.000000
     3  H    1.086683   1.758949   0.000000
     4  H    1.086684   1.758962   1.768117   0.000000
     5  O    1.398571   2.003349   2.065396   2.065383   0.000000
     6  H    1.942373   2.774590   2.222434   2.491024   0.939638
                    6
     6  H    0.000000
 Stoichiometry    CH4O
 Framework group  C1[X(CH4O)]
 Deg. of freedom    12
 Full point group                 C1      NOp   1
 Largest Abelian subgroup         C1      NOp   1
 Largest concise Abelian subgroup C1      NOp   1
                         Standard orientation:                         
 ---------------------------------------------------------------------
 Center     Atomic      Atomic             Coordinates (Angstroms)
 Number     Number       Type             X           Y           Z
 ---------------------------------------------------------------------
      1          6           0       -0.656583    0.020148    0.000860
      2          1           0       -1.067495   -0.880646   -0.430705
      3          1           0       -0.976854    0.867902   -0.598822
      4          1           0       -1.050868    0.132220    1.007270
      5          8           0        0.734940   -0.120080    0.000770
      6          1           0        1.155192    0.720280    0.010933
 ---------------------------------------------------------------------
 Rotational constants (GHZ):    131.8520713     25.4346842     24.5800139
 Standard basis: 6-311+G(d) (5D, 7F)
 There are    56 symmetry adapted basis functions of A   symmetry.
 Integral buffers will be    262144 words long.
 Raffenetti 1 integral format.
 Two-electron integral symmetry is turned on.
    56 basis functions,    92 primitive gaussians,    58 cartesian basis functions
     9 alpha electrons        9 beta electrons
       nuclear repulsion energy        40.8398655166 Hartrees.
 NAtoms=    6 NActive=    6 NUniq=    6 SFac= 7.50D-01 NAtFMM=   80 NAOKFM=F Big=F
 One-electron integrals computed using PRISM.
 NBasis=    56 RedAO= T  NBF=    56
 NBsUse=    56 1.00D-06 NBFU=    56
 Harris functional with IExCor=  205 diagonalized for initial guess.
 ExpMin= 4.38D-02 ExpMax= 8.59D+03 ExpMxC= 1.30D+03 IAcc=2 IRadAn=         0 AccDes= 0.00D+00
 HarFok:  IExCor=  205 AccDes= 0.00D+00 IRadAn=         0 IDoV= 1
 ScaDFX=  1.000000  1.000000  1.000000  1.000000
 FoFCou: FMM=F IPFlag=           0 FMFlag=      100000 FMFlg1=           0
         NFxFlg=           0 DoJE=T BraDBF=F KetDBF=T FulRan=T
         Omega=  0.000000  0.000000  1.000000  0.000000  0.000000 ICntrl=     500 IOpCl=  0
         NMat0=    1 NMatS0=    1 NMatT0=    0 NMatD0=    1 NMtDS0=    0 NMtDT0=    0
         I1Cent=           4 NGrid=           0.
 Petite list used in FoFCou.
 Mixing orbitals, IMix= 1 IMixAn=  0 NRI=1 NE=    9 Coef=  7.07106781D-01  7.07106781D-01
 Initial guess orbital symmetries:
       Occupied  (A) (A) (A) (A) (A) (A) (A) (A) (A)
       Virtual   (A) (A) (A) (A) (A) (A) (A) (A) (A) (A) (A) (A)
                 (A) (A) (A) (A) (A) (A) (A) (A) (A) (A) (A) (A)
                 (A) (A) (A) (A) (A) (A) (A) (A) (A) (A) (A) (A)
                 (A) (A) (A) (A) (A) (A) (A) (A) (A) (A) (A)
 The electronic state of the initial guess is 1-A.
 Requested convergence on RMS density matrix=1.00D-08 within 128 cycles.
 Requested convergence on MAX density matrix=1.00D-06.
 Requested convergence on             energy=1.00D-06.
 No special actions if energy rises.
 Keep R1 ints in memory in canonical form, NReq=2313571.
 SCF Done:  E(RHF) =  -115.067642658     A.U. after   13 cycles
             Convg  =    0.3769D-08             -V/T =  1.9996
 Variable Step   Value    
 -------- ---- -----------
    12       5    2.617016
 ---------------------------------------------------------------------------------------------------
                            Z-MATRIX (ANGSTROMS AND DEGREES)
   CD    Cent   Atom    N1       Length/X        N2       Alpha/Y        N3        Beta/Z          J
 ---------------------------------------------------------------------------------------------------
      1      1  C 
      2      2  H        1   1.080060(     1)
      3      3  H        1   1.086683(     2)      2  108.543(     6)
      4      4  H        1   1.086684(     3)      2  108.544(     7)      3  118.205(    10)      0
      5      5  O        1   1.398571(     4)      2  107.151(     8)      3 -120.898(    11)      0
      6      6  H        5   0.939638(     5)      1  110.813(     9)      2  149.944(    12)      0
 ---------------------------------------------------------------------------------------------------
                         Z-Matrix orientation:                         
 ---------------------------------------------------------------------
 Center     Atomic      Atomic             Coordinates (Angstroms)
 Number     Number       Type             X           Y           Z
 ---------------------------------------------------------------------
      1          6           0        0.000000    0.000000    0.000000
      2          1           0        0.000000    0.000000    1.080060
      3          1           0        1.030269    0.000000   -0.345580
      4          1           0       -0.486931   -0.907932   -0.345600
      5          8           0       -0.686243    1.146726   -0.412421
      6          1           0       -0.357473    1.454008   -1.237289
 ---------------------------------------------------------------------
                    Distance matrix (angstroms):
                    1          2          3          4          5
     1  C    0.000000
     2  H    1.080060   0.000000
     3  H    1.086683   1.758949   0.000000
     4  H    1.086684   1.758962   1.768117   0.000000
     5  O    1.398571   2.003349   2.065396   2.065383   0.000000
     6  H    1.942373   2.758991   2.198890   2.527970   0.939638
                    6
     6  H    0.000000
 Stoichiometry    CH4O
 Framework group  C1[X(CH4O)]
 Deg. of freedom    12
 Full point group                 C1      NOp   1
 Largest Abelian subgroup         C1      NOp   1
 Largest concise Abelian subgroup C1      NOp   1
                         Standard orientation:                         
 ---------------------------------------------------------------------
 Center     Atomic      Atomic             Coordinates (Angstroms)
 Number     Number       Type             X           Y           Z
 ---------------------------------------------------------------------
      1          6           0       -0.656596    0.020083    0.001039
      2          1           0       -1.062474   -0.829812   -0.527611
      3          1           0       -0.970764    0.926648   -0.509175
      4          1           0       -1.061713    0.025546    1.009370
      5          8           0        0.734906   -0.120351    0.001064
      6          1           0        1.155279    0.719929    0.012672
 ---------------------------------------------------------------------
 Rotational constants (GHZ):    131.8616062     25.4373393     24.5775813
 Standard basis: 6-311+G(d) (5D, 7F)
 There are    56 symmetry adapted basis functions of A   symmetry.
 Integral buffers will be    262144 words long.
 Raffenetti 1 integral format.
 Two-electron integral symmetry is turned on.
    56 basis functions,    92 primitive gaussians,    58 cartesian basis functions
     9 alpha electrons        9 beta electrons
       nuclear repulsion energy        40.8403886365 Hartrees.
 NAtoms=    6 NActive=    6 NUniq=    6 SFac= 7.50D-01 NAtFMM=   80 NAOKFM=F Big=F
 One-electron integrals computed using PRISM.
 NBasis=    56 RedAO= T  NBF=    56
 NBsUse=    56 1.00D-06 NBFU=    56
 Harris functional with IExCor=  205 diagonalized for initial guess.
 ExpMin= 4.38D-02 ExpMax= 8.59D+03 ExpMxC= 1.30D+03 IAcc=2 IRadAn=         0 AccDes= 0.00D+00
 HarFok:  IExCor=  205 AccDes= 0.00D+00 IRadAn=         0 IDoV= 1
 ScaDFX=  1.000000  1.000000  1.000000  1.000000
 FoFCou: FMM=F IPFlag=           0 FMFlag=      100000 FMFlg1=           0
         NFxFlg=           0 DoJE=T BraDBF=F KetDBF=T FulRan=T
         Omega=  0.000000  0.000000  1.000000  0.000000  0.000000 ICntrl=     500 IOpCl=  0
         NMat0=    1 NMatS0=    1 NMatT0=    0 NMatD0=    1 NMtDS0=    0 NMtDT0=    0
         I1Cent=           4 NGrid=           0.
 Petite list used in FoFCou.
 Mixing orbitals, IMix= 1 IMixAn=  0 NRI=1 NE=    9 Coef=  7.07106781D-01  7.07106781D-01
 Initial guess orbital symmetries:
       Occupied  (A) (A) (A) (A) (A) (A) (A) (A) (A)
       Virtual   (A) (A) (A) (A) (A) (A) (A) (A) (A) (A) (A) (A)
                 (A) (A) (A) (A) (A) (A) (A) (A) (A) (A) (A) (A)
                 (A) (A) (A) (A) (A) (A) (A) (A) (A) (A) (A) (A)
                 (A) (A) (A) (A) (A) (A) (A) (A) (A) (A) (A)
 The electronic state of the initial guess is 1-A.
 Requested convergence on RMS density matrix=1.00D-08 within 128 cycles.
 Requested convergence on MAX density matrix=1.00D-06.
 Requested convergence on             energy=1.00D-06.
 No special actions if energy rises.
 Keep R1 ints in memory in canonical form, NReq=2313571.
 SCF Done:  E(RHF) =  -115.067318975     A.U. after   13 cycles
             Convg  =    0.3565D-08             -V/T =  1.9996
 Variable Step   Value    
 -------- ---- -----------
    12       6    2.512296
 ---------------------------------------------------------------------------------------------------
                            Z-MATRIX (ANGSTROMS AND DEGREES)
   CD    Cent   Atom    N1       Length/X        N2       Alpha/Y        N3        Beta/Z          J
 ---------------------------------------------------------------------------------------------------
      1      1  C 
      2      2  H        1   1.080060(     1)
      3      3  H        1   1.086683(     2)      2  108.543(     6)
      4      4  H        1   1.086684(     3)      2  108.544(     7)      3  118.205(    10)      0
      5      5  O        1   1.398571(     4)      2  107.151(     8)      3 -120.898(    11)      0
      6      6  H        5   0.939638(     5)      1  110.813(     9)      2  143.944(    12)      0
 ---------------------------------------------------------------------------------------------------
                         Z-Matrix orientation:                         
 ---------------------------------------------------------------------
 Center     Atomic      Atomic             Coordinates (Angstroms)
 Number     Number       Type             X           Y           Z
 ---------------------------------------------------------------------
      1          6           0        0.000000    0.000000    0.000000
      2          1           0        0.000000    0.000000    1.080060
      3          1           0        1.030269    0.000000   -0.345580
      4          1           0       -0.486931   -0.907932   -0.345600
      5          8           0       -0.686243    1.146726   -0.412421
      6          1           0       -0.298948    1.506266   -1.189372
 ---------------------------------------------------------------------
                    Distance matrix (angstroms):
                    1          2          3          4          5
     1  C    0.000000
     2  H    1.080060   0.000000
     3  H    1.086683   1.758949   0.000000
     4  H    1.086684   1.758962   1.768117   0.000000
     5  O    1.398571   2.003349   2.065396   2.065383   0.000000
     6  H    1.942373   2.740169   2.178908   2.564301   0.939638
                    6
     6  H    0.000000
 Stoichiometry    CH4O
 Framework group  C1[X(CH4O)]
 Deg. of freedom    12
 Full point group                 C1      NOp   1
 Largest Abelian subgroup         C1      NOp   1
 Largest concise Abelian subgroup C1      NOp   1
                         Standard orientation:                         
 ---------------------------------------------------------------------
 Center     Atomic      Atomic             Coordinates (Angstroms)
 Number     Number       Type             X           Y           Z
 ---------------------------------------------------------------------
      1          6           0       -0.656612    0.020005    0.001197
      2          1           0       -1.056452   -0.769479   -0.617973
      3          1           0       -0.965644    0.975299   -0.414488
      4          1           0       -1.072535   -0.079990    1.000141
      5          8           0        0.734865   -0.120673    0.001413
      6          1           0        1.155383    0.719523    0.013836
 ---------------------------------------------------------------------
 Rotational constants (GHZ):    131.8730273     25.4403089     24.5748658
 Standard basis: 6-311+G(d) (5D, 7F)
 There are    56 symmetry adapted basis functions of A   symmetry.
 Integral buffers will be    262144 words long.
 Raffenetti 1 integral format.
 Two-electron integral symmetry is turned on.
    56 basis functions,    92 primitive gaussians,    58 cartesian basis functions
     9 alpha electrons        9 beta electrons
       nuclear repulsion energy        40.8409472828 Hartrees.
 NAtoms=    6 NActive=    6 NUniq=    6 SFac= 7.50D-01 NAtFMM=   80 NAOKFM=F Big=F
 One-electron integrals computed using PRISM.
 NBasis=    56 RedAO= T  NBF=    56
 NBsUse=    56 1.00D-06 NBFU=    56
 Harris functional with IExCor=  205 diagonalized for initial guess.
 ExpMin= 4.38D-02 ExpMax= 8.59D+03 ExpMxC= 1.30D+03 IAcc=2 IRadAn=         0 AccDes= 0.00D+00
 HarFok:  IExCor=  205 AccDes= 0.00D+00 IRadAn=         0 IDoV= 1
 ScaDFX=  1.000000  1.000000  1.000000  1.000000
 FoFCou: FMM=F IPFlag=           0 FMFlag=      100000 FMFlg1=           0
         NFxFlg=           0 DoJE=T BraDBF=F KetDBF=T FulRan=T
         Omega=  0.000000  0.000000  1.000000  0.000000  0.000000 ICntrl=     500 IOpCl=  0
         NMat0=    1 NMatS0=    1 NMatT0=    0 NMatD0=    1 NMtDS0=    0 NMtDT0=    0
         I1Cent=           4 NGrid=           0.
 Petite list used in FoFCou.
 Mixing orbitals, IMix= 1 IMixAn=  0 NRI=1 NE=    9 Coef=  7.07106781D-01  7.07106781D-01
 Initial guess orbital symmetries:
       Occupied  (A) (A) (A) (A) (A) (A) (A) (A) (A)
       Virtual   (A) (A) (A) (A) (A) (A) (A) (A) (A) (A) (A) (A)
                 (A) (A) (A) (A) (A) (A) (A) (A) (A) (A) (A) (A)
                 (A) (A) (A) (A) (A) (A) (A) (A) (A) (A) (A) (A)
                 (A) (A) (A) (A) (A) (A) (A) (A) (A) (A) (A)
 The electronic state of the initial guess is 1-A.
 Requested convergence on RMS density matrix=1.00D-08 within 128 cycles.
 Requested convergence on MAX density matrix=1.00D-06.
 Requested convergence on             energy=1.00D-06.
 No special actions if energy rises.
 Keep R1 ints in memory in canonical form, NReq=2313571.
 SCF Done:  E(RHF) =  -115.066979359     A.U. after   13 cycles
             Convg  =    0.3258D-08             -V/T =  1.9996
 Variable Step   Value    
 -------- ---- -----------
    12       7    2.407576
 ---------------------------------------------------------------------------------------------------
                            Z-MATRIX (ANGSTROMS AND DEGREES)
   CD    Cent   Atom    N1       Length/X        N2       Alpha/Y        N3        Beta/Z          J
 ---------------------------------------------------------------------------------------------------
      1      1  C 
      2      2  H        1   1.080060(     1)
      3      3  H        1   1.086683(     2)      2  108.543(     6)
      4      4  H        1   1.086684(     3)      2  108.544(     7)      3  118.205(    10)      0
      5      5  O        1   1.398571(     4)      2  107.151(     8)      3 -120.898(    11)      0
      6      6  H        5   0.939638(     5)      1  110.813(     9)      2  137.944(    12)      0
 ---------------------------------------------------------------------------------------------------
                         Z-Matrix orientation:                         
 ---------------------------------------------------------------------
 Center     Atomic      Atomic             Coordinates (Angstroms)
 Number     Number       Type             X           Y           Z
 ---------------------------------------------------------------------
      1          6           0        0.000000    0.000000    0.000000
      2          1           0        0.000000    0.000000    1.080060
      3          1           0        1.030269    0.000000   -0.345580
      4          1           0       -0.486931   -0.907932   -0.345600
      5          8           0       -0.686243    1.146726   -0.412421
      6          1           0       -0.246460    1.557583   -1.134021
 ---------------------------------------------------------------------
                    Distance matrix (angstroms):
                    1          2          3          4          5
     1  C    0.000000
     2  H    1.080060   0.000000
     3  H    1.086683   1.758949   0.000000
     4  H    1.086684   1.758962   1.768117   0.000000
     5  O    1.398571   2.003349   2.065396   2.065383   0.000000
     6  H    1.942373   2.718264   2.162809   2.599654   0.939638
                    6
     6  H    0.000000
 Stoichiometry    CH4O
 Framework group  C1[X(CH4O)]
 Deg. of freedom    12
 Full point group                 C1      NOp   1
 Largest Abelian subgroup         C1      NOp   1
 Largest concise Abelian subgroup C1      NOp   1
                         Standard orientation:                         
 ---------------------------------------------------------------------
 Center     Atomic      Atomic             Coordinates (Angstroms)
 Number     Number       Type             X           Y           Z
 ---------------------------------------------------------------------
      1          6           0       -0.656631    0.019916    0.001331
      2          1           0       -1.049495   -0.700556   -0.700885
      3          1           0       -0.961552    1.013506   -0.315972
      4          1           0       -1.083216   -0.183186    0.979930
      5          8           0        0.734818   -0.121041    0.001820
      6          1           0        1.155502    0.719071    0.014385
 ---------------------------------------------------------------------
 Rotational constants (GHZ):    131.8862020     25.4434534     24.5719980
 Standard basis: 6-311+G(d) (5D, 7F)
 There are    56 symmetry adapted basis functions of A   symmetry.
 Integral buffers will be    262144 words long.
 Raffenetti 1 integral format.
 Two-electron integral symmetry is turned on.
    56 basis functions,    92 primitive gaussians,    58 cartesian basis functions
     9 alpha electrons        9 beta electrons
       nuclear repulsion energy        40.8415049003 Hartrees.
 NAtoms=    6 NActive=    6 NUniq=    6 SFac= 7.50D-01 NAtFMM=   80 NAOKFM=F Big=F
 One-electron integrals computed using PRISM.
 NBasis=    56 RedAO= T  NBF=    56
 NBsUse=    56 1.00D-06 NBFU=    56
 Harris functional with IExCor=  205 diagonalized for initial guess.
 ExpMin= 4.38D-02 ExpMax= 8.59D+03 ExpMxC= 1.30D+03 IAcc=2 IRadAn=         0 AccDes= 0.00D+00
 HarFok:  IExCor=  205 AccDes= 0.00D+00 IRadAn=         0 IDoV= 1
 ScaDFX=  1.000000  1.000000  1.000000  1.000000
 FoFCou: FMM=F IPFlag=           0 FMFlag=      100000 FMFlg1=           0
         NFxFlg=           0 DoJE=T BraDBF=F KetDBF=T FulRan=T
         Omega=  0.000000  0.000000  1.000000  0.000000  0.000000 ICntrl=     500 IOpCl=  0
         NMat0=    1 NMatS0=    1 NMatT0=    0 NMatD0=    1 NMtDS0=    0 NMtDT0=    0
         I1Cent=           4 NGrid=           0.
 Petite list used in FoFCou.
 Mixing orbitals, IMix= 1 IMixAn=  0 NRI=1 NE=    9 Coef=  7.07106781D-01  7.07106781D-01
 Initial guess orbital symmetries:
       Occupied  (A) (A) (A) (A) (A) (A) (A) (A) (A)
       Virtual   (A) (A) (A) (A) (A) (A) (A) (A) (A) (A) (A) (A)
                 (A) (A) (A) (A) (A) (A) (A) (A) (A) (A) (A) (A)
                 (A) (A) (A) (A) (A) (A) (A) (A) (A) (A) (A) (A)
                 (A) (A) (A) (A) (A) (A) (A) (A) (A) (A) (A)
 The electronic state of the initial guess is 1-A.
 Requested convergence on RMS density matrix=1.00D-08 within 128 cycles.
 Requested convergence on MAX density matrix=1.00D-06.
 Requested convergence on             energy=1.00D-06.
 No special actions if energy rises.
 Keep R1 ints in memory in canonical form, NReq=2313571.
 SCF Done:  E(RHF) =  -115.066649477     A.U. after   13 cycles
             Convg  =    0.2953D-08             -V/T =  1.9996
 Variable Step   Value    
 -------- ---- -----------
    12       8    2.302857
 ---------------------------------------------------------------------------------------------------
                            Z-MATRIX (ANGSTROMS AND DEGREES)
   CD    Cent   Atom    N1       Length/X        N2       Alpha/Y        N3        Beta/Z          J
 ---------------------------------------------------------------------------------------------------
      1      1  C 
      2      2  H        1   1.080060(     1)
      3      3  H        1   1.086683(     2)      2  108.543(     6)
      4      4  H        1   1.086684(     3)      2  108.544(     7)      3  118.205(    10)      0
      5      5  O        1   1.398571(     4)      2  107.151(     8)      3 -120.898(    11)      0
      6      6  H        5   0.939638(     5)      1  110.813(     9)      2  131.944(    12)      0
 ---------------------------------------------------------------------------------------------------
                         Z-Matrix orientation:                         
 ---------------------------------------------------------------------
 Center     Atomic      Atomic             Coordinates (Angstroms)
 Number     Number       Type             X           Y           Z
 ---------------------------------------------------------------------
      1          6           0        0.000000    0.000000    0.000000
      2          1           0        0.000000    0.000000    1.080060
      3          1           0        1.030269    0.000000   -0.345580
      4          1           0       -0.486931   -0.907932   -0.345600
      5          8           0       -0.686243    1.146726   -0.412421
      6          1           0       -0.200586    1.607398   -1.071843
 ---------------------------------------------------------------------
                    Distance matrix (angstroms):
                    1          2          3          4          5
     1  C    0.000000
     2  H    1.080060   0.000000
     3  H    1.086683   1.758949   0.000000
     4  H    1.086684   1.758962   1.768117   0.000000
     5  O    1.398571   2.003349   2.065396   2.065383   0.000000
     6  H    1.942373   2.693446   2.150859   2.633688   0.939638
                    6
     6  H    0.000000
 Stoichiometry    CH4O
 Framework group  C1[X(CH4O)]
 Deg. of freedom    12
 Full point group                 C1      NOp   1
 Largest Abelian subgroup         C1      NOp   1
 Largest concise Abelian subgroup C1      NOp   1
                         Standard orientation:                         
 ---------------------------------------------------------------------
 Center     Atomic      Atomic             Coordinates (Angstroms)
 Number     Number       Type             X           Y           Z
 ---------------------------------------------------------------------
      1          6           0       -0.656652    0.019814    0.001440
      2          1           0       -1.041679   -0.624003   -0.775593
      3          1           0       -0.958532    1.041081   -0.214807
      4          1           0       -1.093638   -0.282950    0.949205
      5          8           0        0.734766   -0.121449    0.002281
      6          1           0        1.155633    0.718579    0.014308
 ---------------------------------------------------------------------
 Rotational constants (GHZ):    131.9009777     25.4466271     24.5691133
 Standard basis: 6-311+G(d) (5D, 7F)
 There are    56 symmetry adapted basis functions of A   symmetry.
 Integral buffers will be    262144 words long.
 Raffenetti 1 integral format.
 Two-electron integral symmetry is turned on.
    56 basis functions,    92 primitive gaussians,    58 cartesian basis functions
     9 alpha electrons        9 beta electrons
       nuclear repulsion energy        40.8420277129 Hartrees.
 NAtoms=    6 NActive=    6 NUniq=    6 SFac= 7.50D-01 NAtFMM=   80 NAOKFM=F Big=F
 One-electron integrals computed using PRISM.
 NBasis=    56 RedAO= T  NBF=    56
 NBsUse=    56 1.00D-06 NBFU=    56
 Harris functional with IExCor=  205 diagonalized for initial guess.
 ExpMin= 4.38D-02 ExpMax= 8.59D+03 ExpMxC= 1.30D+03 IAcc=2 IRadAn=         0 AccDes= 0.00D+00
 HarFok:  IExCor=  205 AccDes= 0.00D+00 IRadAn=         0 IDoV= 1
 ScaDFX=  1.000000  1.000000  1.000000  1.000000
 FoFCou: FMM=F IPFlag=           0 FMFlag=      100000 FMFlg1=           0
         NFxFlg=           0 DoJE=T BraDBF=F KetDBF=T FulRan=T
         Omega=  0.000000  0.000000  1.000000  0.000000  0.000000 ICntrl=     500 IOpCl=  0
         NMat0=    1 NMatS0=    1 NMatT0=    0 NMatD0=    1 NMtDS0=    0 NMtDT0=    0
         I1Cent=           4 NGrid=           0.
 Petite list used in FoFCou.
 Mixing orbitals, IMix= 1 IMixAn=  0 NRI=1 NE=    9 Coef=  7.07106781D-01  7.07106781D-01
 Initial guess orbital symmetries:
       Occupied  (A) (A) (A) (A) (A) (A) (A) (A) (A)
       Virtual   (A) (A) (A) (A) (A) (A) (A) (A) (A) (A) (A) (A)
                 (A) (A) (A) (A) (A) (A) (A) (A) (A) (A) (A) (A)
                 (A) (A) (A) (A) (A) (A) (A) (A) (A) (A) (A) (A)
                 (A) (A) (A) (A) (A) (A) (A) (A) (A) (A) (A)
 The electronic state of the initial guess is 1-A.
 Requested convergence on RMS density matrix=1.00D-08 within 128 cycles.
 Requested convergence on MAX density matrix=1.00D-06.
 Requested convergence on             energy=1.00D-06.
 No special actions if energy rises.
 Keep R1 ints in memory in canonical form, NReq=2313571.
 SCF Done:  E(RHF) =  -115.066353442     A.U. after   13 cycles
             Convg  =    0.2786D-08             -V/T =  1.9996
 Variable Step   Value    
 -------- ---- -----------
    12       9    2.198137
 ---------------------------------------------------------------------------------------------------
                            Z-MATRIX (ANGSTROMS AND DEGREES)
   CD    Cent   Atom    N1       Length/X        N2       Alpha/Y        N3        Beta/Z          J
 ---------------------------------------------------------------------------------------------------
      1      1  C 
      2      2  H        1   1.080060(     1)
      3      3  H        1   1.086683(     2)      2  108.543(     6)
      4      4  H        1   1.086684(     3)      2  108.544(     7)      3  118.205(    10)      0
      5      5  O        1   1.398571(     4)      2  107.151(     8)      3 -120.898(    11)      0
      6      6  H        5   0.939638(     5)      1  110.813(     9)      2  125.944(    12)      0
 ---------------------------------------------------------------------------------------------------
                         Z-Matrix orientation:                         
 ---------------------------------------------------------------------
 Center     Atomic      Atomic             Coordinates (Angstroms)
 Number     Number       Type             X           Y           Z
 ---------------------------------------------------------------------
      1          6           0        0.000000    0.000000    0.000000
      2          1           0        0.000000    0.000000    1.080060
      3          1           0        1.030269    0.000000   -0.345580
      4          1           0       -0.486931   -0.907932   -0.345600
      5          8           0       -0.686243    1.146726   -0.412421
      6          1           0       -0.161827    1.655166   -1.003519
 ---------------------------------------------------------------------
                    Distance matrix (angstroms):
                    1          2          3          4          5
     1  C    0.000000
     2  H    1.080060   0.000000
     3  H    1.086683   1.758949   0.000000
     4  H    1.086684   1.758962   1.768117   0.000000
     5  O    1.398571   2.003349   2.065396   2.065383   0.000000
     6  H    1.942373   2.665907   2.143258   2.666087   0.939638
                    6
     6  H    0.000000
 Stoichiometry    CH4O
 Framework group  C1[X(CH4O)]
 Deg. of freedom    12
 Full point group                 C1      NOp   1
 Largest Abelian subgroup         C1      NOp   1
 Largest concise Abelian subgroup C1      NOp   1
                         Standard orientation:                         
 ---------------------------------------------------------------------
 Center     Atomic      Atomic             Coordinates (Angstroms)
 Number     Number       Type             X           Y           Z
 ---------------------------------------------------------------------
      1          6           0       -0.656675    0.019702    0.001524
      2          1           0       -1.033089   -0.540805   -0.841490
      3          1           0       -0.956618    1.057970   -0.112124
      4          1           0       -1.103688   -0.378304    0.908526
      5          8           0        0.734709   -0.121891    0.002790
      6          1           0        1.155774    0.718054    0.013622
 ---------------------------------------------------------------------
 Rotational constants (GHZ):    131.9171841     25.4496853     24.5663462
 Standard basis: 6-311+G(d) (5D, 7F)
 There are    56 symmetry adapted basis functions of A   symmetry.
 Integral buffers will be    262144 words long.
 Raffenetti 1 integral format.
 Two-electron integral symmetry is turned on.
    56 basis functions,    92 primitive gaussians,    58 cartesian basis functions
     9 alpha electrons        9 beta electrons
       nuclear repulsion energy        40.8424880237 Hartrees.
 NAtoms=    6 NActive=    6 NUniq=    6 SFac= 7.50D-01 NAtFMM=   80 NAOKFM=F Big=F
 One-electron integrals computed using PRISM.
 NBasis=    56 RedAO= T  NBF=    56
 NBsUse=    56 1.00D-06 NBFU=    56
 Harris functional with IExCor=  205 diagonalized for initial guess.
 ExpMin= 4.38D-02 ExpMax= 8.59D+03 ExpMxC= 1.30D+03 IAcc=2 IRadAn=         0 AccDes= 0.00D+00
 HarFok:  IExCor=  205 AccDes= 0.00D+00 IRadAn=         0 IDoV= 1
 ScaDFX=  1.000000  1.000000  1.000000  1.000000
 FoFCou: FMM=F IPFlag=           0 FMFlag=      100000 FMFlg1=           0
         NFxFlg=           0 DoJE=T BraDBF=F KetDBF=T FulRan=T
         Omega=  0.000000  0.000000  1.000000  0.000000  0.000000 ICntrl=     500 IOpCl=  0
         NMat0=    1 NMatS0=    1 NMatT0=    0 NMatD0=    1 NMtDS0=    0 NMtDT0=    0
         I1Cent=           4 NGrid=           0.
 Petite list used in FoFCou.
 Mixing orbitals, IMix= 1 IMixAn=  0 NRI=1 NE=    9 Coef=  7.07106781D-01  7.07106781D-01
 Initial guess orbital symmetries:
       Occupied  (A) (A) (A) (A) (A) (A) (A) (A) (A)
       Virtual   (A) (A) (A) (A) (A) (A) (A) (A) (A) (A) (A) (A)
                 (A) (A) (A) (A) (A) (A) (A) (A) (A) (A) (A) (A)
                 (A) (A) (A) (A) (A) (A) (A) (A) (A) (A) (A) (A)
                 (A) (A) (A) (A) (A) (A) (A) (A) (A) (A) (A)
 The electronic state of the initial guess is 1-A.
 Requested convergence on RMS density matrix=1.00D-08 within 128 cycles.
 Requested convergence on MAX density matrix=1.00D-06.
 Requested convergence on             energy=1.00D-06.
 No special actions if energy rises.
 Keep R1 ints in memory in canonical form, NReq=2313571.
 SCF Done:  E(RHF) =  -115.066111635     A.U. after   13 cycles
             Convg  =    0.2794D-08             -V/T =  1.9996
 Variable Step   Value    
 -------- ---- -----------
    12      10    2.093417
 ---------------------------------------------------------------------------------------------------
                            Z-MATRIX (ANGSTROMS AND DEGREES)
   CD    Cent   Atom    N1       Length/X        N2       Alpha/Y        N3        Beta/Z          J
 ---------------------------------------------------------------------------------------------------
      1      1  C 
      2      2  H        1   1.080060(     1)
      3      3  H        1   1.086683(     2)      2  108.543(     6)
      4      4  H        1   1.086684(     3)      2  108.544(     7)      3  118.205(    10)      0
      5      5  O        1   1.398571(     4)      2  107.151(     8)      3 -120.898(    11)      0
      6      6  H        5   0.939638(     5)      1  110.813(     9)      2  119.944(    12)      0
 ---------------------------------------------------------------------------------------------------
                         Z-Matrix orientation:                         
 ---------------------------------------------------------------------
 Center     Atomic      Atomic             Coordinates (Angstroms)
 Number     Number       Type             X           Y           Z
 ---------------------------------------------------------------------
      1          6           0        0.000000    0.000000    0.000000
      2          1           0        0.000000    0.000000    1.080060
      3          1           0        1.030269    0.000000   -0.345580
      4          1           0       -0.486931   -0.907932   -0.345600
      5          8           0       -0.686243    1.146726   -0.412421
      6          1           0       -0.130609    1.700362   -0.929797
 ---------------------------------------------------------------------
                    Distance matrix (angstroms):
                    1          2          3          4          5
     1  C    0.000000
     2  H    1.080060   0.000000
     3  H    1.086683   1.758949   0.000000
     4  H    1.086684   1.758962   1.768117   0.000000
     5  O    1.398571   2.003349   2.065396   2.065383   0.000000
     6  H    1.942373   2.635870   2.140136   2.696563   0.939638
                    6
     6  H    0.000000
 Stoichiometry    CH4O
 Framework group  C1[X(CH4O)]
 Deg. of freedom    12
 Full point group                 C1      NOp   1
 Largest Abelian subgroup         C1      NOp   1
 Largest concise Abelian subgroup C1      NOp   1
                         Standard orientation:                         
 ---------------------------------------------------------------------
 Center     Atomic      Atomic             Coordinates (Angstroms)
 Number     Number       Type             X           Y           Z
 ---------------------------------------------------------------------
      1          6           0        0.656700    0.019580   -0.001584
      2          1           0        1.023819   -0.451945    0.898092
      3          1           0        0.955830    1.064228    0.008993
      4          1           0        1.113256   -0.468377   -0.858518
      5          8           0       -0.734648   -0.122361   -0.003337
      6          1           0       -1.155923    0.717500   -0.012367
 ---------------------------------------------------------------------
 Rotational constants (GHZ):    131.9346356     25.4524903     24.5638241
 Standard basis: 6-311+G(d) (5D, 7F)
 There are    56 symmetry adapted basis functions of A   symmetry.
 Integral buffers will be    262144 words long.
 Raffenetti 1 integral format.
 Two-electron integral symmetry is turned on.
    56 basis functions,    92 primitive gaussians,    58 cartesian basis functions
     9 alpha electrons        9 beta electrons
       nuclear repulsion energy        40.8428669684 Hartrees.
 NAtoms=    6 NActive=    6 NUniq=    6 SFac= 7.50D-01 NAtFMM=   80 NAOKFM=F Big=F
 One-electron integrals computed using PRISM.
 NBasis=    56 RedAO= T  NBF=    56
 NBsUse=    56 1.00D-06 NBFU=    56
 Harris functional with IExCor=  205 diagonalized for initial guess.
 ExpMin= 4.38D-02 ExpMax= 8.59D+03 ExpMxC= 1.30D+03 IAcc=2 IRadAn=         0 AccDes= 0.00D+00
 HarFok:  IExCor=  205 AccDes= 0.00D+00 IRadAn=         0 IDoV= 1
 ScaDFX=  1.000000  1.000000  1.000000  1.000000
 FoFCou: FMM=F IPFlag=           0 FMFlag=      100000 FMFlg1=           0
         NFxFlg=           0 DoJE=T BraDBF=F KetDBF=T FulRan=T
         Omega=  0.000000  0.000000  1.000000  0.000000  0.000000 ICntrl=     500 IOpCl=  0
         NMat0=    1 NMatS0=    1 NMatT0=    0 NMatD0=    1 NMtDS0=    0 NMtDT0=    0
         I1Cent=           4 NGrid=           0.
 Petite list used in FoFCou.
 Mixing orbitals, IMix= 1 IMixAn=  0 NRI=1 NE=    9 Coef=  7.07106781D-01  7.07106781D-01
 Initial guess orbital symmetries:
       Occupied  (A) (A) (A) (A) (A) (A) (A) (A) (A)
       Virtual   (A) (A) (A) (A) (A) (A) (A) (A) (A) (A) (A) (A)
                 (A) (A) (A) (A) (A) (A) (A) (A) (A) (A) (A) (A)
                 (A) (A) (A) (A) (A) (A) (A) (A) (A) (A) (A) (A)
                 (A) (A) (A) (A) (A) (A) (A) (A) (A) (A) (A)
 The electronic state of the initial guess is 1-A.
 Requested convergence on RMS density matrix=1.00D-08 within 128 cycles.
 Requested convergence on MAX density matrix=1.00D-06.
 Requested convergence on             energy=1.00D-06.
 No special actions if energy rises.
 Keep R1 ints in memory in canonical form, NReq=2313571.
 SCF Done:  E(RHF) =  -115.065938832     A.U. after   13 cycles
             Convg  =    0.3106D-08             -V/T =  1.9996
 Variable Step   Value    
 -------- ---- -----------
    12      11    1.988697
 ---------------------------------------------------------------------------------------------------
                            Z-MATRIX (ANGSTROMS AND DEGREES)
   CD    Cent   Atom    N1       Length/X        N2       Alpha/Y        N3        Beta/Z          J
 ---------------------------------------------------------------------------------------------------
      1      1  C 
      2      2  H        1   1.080060(     1)
      3      3  H        1   1.086683(     2)      2  108.543(     6)
      4      4  H        1   1.086684(     3)      2  108.544(     7)      3  118.205(    10)      0
      5      5  O        1   1.398571(     4)      2  107.151(     8)      3 -120.898(    11)      0
      6      6  H        5   0.939638(     5)      1  110.813(     9)      2  113.944(    12)      0
 ---------------------------------------------------------------------------------------------------
                         Z-Matrix orientation:                         
 ---------------------------------------------------------------------
 Center     Atomic      Atomic             Coordinates (Angstroms)
 Number     Number       Type             X           Y           Z
 ---------------------------------------------------------------------
      1          6           0        0.000000    0.000000    0.000000
      2          1           0        0.000000    0.000000    1.080060
      3          1           0        1.030269    0.000000   -0.345580
      4          1           0       -0.486931   -0.907932   -0.345600
      5          8           0       -0.686243    1.146726   -0.412421
      6          1           0       -0.107274    1.742492   -0.851485
 ---------------------------------------------------------------------
                    Distance matrix (angstroms):
                    1          2          3          4          5
     1  C    0.000000
     2  H    1.080060   0.000000
     3  H    1.086683   1.758949   0.000000
     4  H    1.086684   1.758962   1.768117   0.000000
     5  O    1.398571   2.003349   2.065396   2.065383   0.000000
     6  H    1.942373   2.603584   2.141547   2.724850   0.939638
                    6
     6  H    0.000000
 Stoichiometry    CH4O
 Framework group  C1[X(CH4O)]
 Deg. of freedom    12
 Full point group                 C1      NOp   1
 Largest Abelian subgroup         C1      NOp   1
 Largest concise Abelian subgroup C1      NOp   1
                         Standard orientation:                         
 ---------------------------------------------------------------------
 Center     Atomic      Atomic             Coordinates (Angstroms)
 Number     Number       Type             X           Y           Z
 ---------------------------------------------------------------------
      1          6           0        0.656727    0.019449   -0.001618
      2          1           0        1.013970   -0.358397    0.945028
      3          1           0        0.956179    1.060002   -0.093580
      4          1           0        1.122237   -0.552403   -0.799846
      5          8           0       -0.734584   -0.122852   -0.003911
      6          1           0       -1.156079    0.716920   -0.010604
 ---------------------------------------------------------------------
 Rotational constants (GHZ):    131.9531333     25.4549169     24.5616628
 Standard basis: 6-311+G(d) (5D, 7F)
 There are    56 symmetry adapted basis functions of A   symmetry.
 Integral buffers will be    262144 words long.
 Raffenetti 1 integral format.
 Two-electron integral symmetry is turned on.
    56 basis functions,    92 primitive gaussians,    58 cartesian basis functions
     9 alpha electrons        9 beta electrons
       nuclear repulsion energy        40.8431563852 Hartrees.
 NAtoms=    6 NActive=    6 NUniq=    6 SFac= 7.50D-01 NAtFMM=   80 NAOKFM=F Big=F
 One-electron integrals computed using PRISM.
 NBasis=    56 RedAO= T  NBF=    56
 NBsUse=    56 1.00D-06 NBFU=    56
 Harris functional with IExCor=  205 diagonalized for initial guess.
 ExpMin= 4.38D-02 ExpMax= 8.59D+03 ExpMxC= 1.30D+03 IAcc=2 IRadAn=         0 AccDes= 0.00D+00
 HarFok:  IExCor=  205 AccDes= 0.00D+00 IRadAn=         0 IDoV= 1
 ScaDFX=  1.000000  1.000000  1.000000  1.000000
 FoFCou: FMM=F IPFlag=           0 FMFlag=      100000 FMFlg1=           0
         NFxFlg=           0 DoJE=T BraDBF=F KetDBF=T FulRan=T
         Omega=  0.000000  0.000000  1.000000  0.000000  0.000000 ICntrl=     500 IOpCl=  0
         NMat0=    1 NMatS0=    1 NMatT0=    0 NMatD0=    1 NMtDS0=    0 NMtDT0=    0
         I1Cent=           4 NGrid=           0.
 Petite list used in FoFCou.
 Mixing orbitals, IMix= 1 IMixAn=  0 NRI=1 NE=    9 Coef=  7.07106781D-01  7.07106781D-01
 Initial guess orbital symmetries:
       Occupied  (A) (A) (A) (A) (A) (A) (A) (A) (A)
       Virtual   (A) (A) (A) (A) (A) (A) (A) (A) (A) (A) (A) (A)
                 (A) (A) (A) (A) (A) (A) (A) (A) (A) (A) (A) (A)
                 (A) (A) (A) (A) (A) (A) (A) (A) (A) (A) (A) (A)
                 (A) (A) (A) (A) (A) (A) (A) (A) (A) (A) (A)
 The electronic state of the initial guess is 1-A.
 Requested convergence on RMS density matrix=1.00D-08 within 128 cycles.
 Requested convergence on MAX density matrix=1.00D-06.
 Requested convergence on             energy=1.00D-06.
 No special actions if energy rises.
 Keep R1 ints in memory in canonical form, NReq=2313571.
 SCF Done:  E(RHF) =  -115.065842871     A.U. after   13 cycles
             Convg  =    0.3109D-08             -V/T =  1.9996
 Variable Step   Value    
 -------- ---- -----------
    12      12    1.883978
 ---------------------------------------------------------------------------------------------------
                            Z-MATRIX (ANGSTROMS AND DEGREES)
   CD    Cent   Atom    N1       Length/X        N2       Alpha/Y        N3        Beta/Z          J
 ---------------------------------------------------------------------------------------------------
      1      1  C 
      2      2  H        1   1.080060(     1)
      3      3  H        1   1.086683(     2)      2  108.543(     6)
      4      4  H        1   1.086684(     3)      2  108.544(     7)      3  118.205(    10)      0
      5      5  O        1   1.398571(     4)      2  107.151(     8)      3 -120.898(    11)      0
      6      6  H        5   0.939638(     5)      1  110.813(     9)      2  107.944(    12)      0
 ---------------------------------------------------------------------------------------------------
                         Z-Matrix orientation:                         
 ---------------------------------------------------------------------
 Center     Atomic      Atomic             Coordinates (Angstroms)
 Number     Number       Type             X           Y           Z
 ---------------------------------------------------------------------
      1          6           0        0.000000    0.000000    0.000000
      2          1           0        0.000000    0.000000    1.080060
      3          1           0        1.030269    0.000000   -0.345580
      4          1           0       -0.486931   -0.907932   -0.345600
      5          8           0       -0.686243    1.146726   -0.412421
      6          1           0       -0.092077    1.781093   -0.769442
 ---------------------------------------------------------------------
                    Distance matrix (angstroms):
                    1          2          3          4          5
     1  C    0.000000
     2  H    1.080060   0.000000
     3  H    1.086683   1.758949   0.000000
     4  H    1.086684   1.758962   1.768117   0.000000
     5  O    1.398571   2.003349   2.065396   2.065383   0.000000
     6  H    1.942373   2.569324   2.147467   2.750711   0.939638
                    6
     6  H    0.000000
 Stoichiometry    CH4O
 Framework group  C1[X(CH4O)]
 Deg. of freedom    12
 Full point group                 C1      NOp   1
 Largest Abelian subgroup         C1      NOp   1
 Largest concise Abelian subgroup C1      NOp   1
                         Standard orientation:                         
 ---------------------------------------------------------------------
 Center     Atomic      Atomic             Coordinates (Angstroms)
 Number     Number       Type             X           Y           Z
 ---------------------------------------------------------------------
      1          6           0        0.656755    0.019308   -0.001630
      2          1           0        1.003650   -0.261109    0.982016
      3          1           0        0.957660    1.045505   -0.194652
      4          1           0        1.130532   -0.629700   -0.733206
      5          8           0       -0.734517   -0.123358   -0.004496
      6          1           0       -1.156238    0.716318   -0.008412
 ---------------------------------------------------------------------
 Rotational constants (GHZ):    131.9724676     25.4568568     24.5599617
 Standard basis: 6-311+G(d) (5D, 7F)
 There are    56 symmetry adapted basis functions of A   symmetry.
 Integral buffers will be    262144 words long.
[...]
 ---------------------------------------------------------------------
 Center     Atomic      Atomic             Coordinates (Angstroms)
 Number     Number       Type             X           Y           Z
 ---------------------------------------------------------------------
      1          6           0        0.000000    0.000000    0.000000
      2          1           0        0.000000    0.000000    1.080060
      3          1           0        1.030269    0.000000   -0.345580
      4          1           0       -0.486931   -0.907932   -0.345600
      5          8           0       -0.686243    1.146726   -0.412421
      6          1           0       -0.875920    1.109698   -1.331970
 ---------------------------------------------------------------------
                    Distance matrix (angstroms):
                    1          2          3          4          5
     1  C    0.000000
     2  H    1.080060   0.000000
     3  H    1.086683   1.758949   0.000000
     4  H    1.086684   1.758962   1.768117   0.000000
     5  O    1.398571   2.003349   2.065396   2.065383   0.000000
     6  H    1.942373   2.795810   2.416186   2.279270   0.939638
                    6
     6  H    0.000000
 Stoichiometry    CH4O
 Framework group  C1[X(CH4O)]
 Deg. of freedom    12
 Full point group                 C1      NOp   1
 Largest Abelian subgroup         C1      NOp   1
 Largest concise Abelian subgroup C1      NOp   1
                         Standard orientation:                         
 ---------------------------------------------------------------------
 Center     Atomic      Atomic             Coordinates (Angstroms)
 Number     Number       Type             X           Y           Z
 ---------------------------------------------------------------------
      1          6           0       -0.656564   -0.020237    0.000446
      2          1           0       -1.074371    0.951107   -0.219683
      3          1           0       -1.029411   -0.345619    0.967913
      4          1           0       -0.991801   -0.720935   -0.759501
      5          8           0        0.734987    0.119706    0.000322
      6          1           0        1.155071   -0.720780    0.006015
 ---------------------------------------------------------------------
 Rotational constants (GHZ):    131.8390278     25.4307946     24.5835837
 Standard basis: 6-311+G(d) (5D, 7F)
 There are    56 symmetry adapted basis functions of A   symmetry.
 Integral buffers will be    262144 words long.
 Raffenetti 1 integral format.
 Two-electron integral symmetry is turned on.
    56 basis functions,    92 primitive gaussians,    58 cartesian basis functions
     9 alpha electrons        9 beta electrons
       nuclear repulsion energy        40.8390602611 Hartrees.
 NAtoms=    6 NActive=    6 NUniq=    6 SFac= 7.50D-01 NAtFMM=   80 NAOKFM=F Big=F
 One-electron integrals computed using PRISM.
 NBasis=    56 RedAO= T  NBF=    56
 NBsUse=    56 1.00D-06 NBFU=    56
 Harris functional with IExCor=  205 diagonalized for initial guess.
 ExpMin= 4.38D-02 ExpMax= 8.59D+03 ExpMxC= 1.30D+03 IAcc=2 IRadAn=         0 AccDes= 0.00D+00
 HarFok:  IExCor=  205 AccDes= 0.00D+00 IRadAn=         0 IDoV= 1
 ScaDFX=  1.000000  1.000000  1.000000  1.000000
 FoFCou: FMM=F IPFlag=           0 FMFlag=      100000 FMFlg1=           0
         NFxFlg=           0 DoJE=T BraDBF=F KetDBF=T FulRan=T
         Omega=  0.000000  0.000000  1.000000  0.000000  0.000000 ICntrl=     500 IOpCl=  0
         NMat0=    1 NMatS0=    1 NMatT0=    0 NMatD0=    1 NMtDS0=    0 NMtDT0=    0
         I1Cent=           4 NGrid=           0.
 Petite list used in FoFCou.
 Mixing orbitals, IMix= 1 IMixAn=  0 NRI=1 NE=    9 Coef=  7.07106781D-01  7.07106781D-01
 Initial guess orbital symmetries:
       Occupied  (A) (A) (A) (A) (A) (A) (A) (A) (A)
       Virtual   (A) (A) (A) (A) (A) (A) (A) (A) (A) (A) (A) (A)
                 (A) (A) (A) (A) (A) (A) (A) (A) (A) (A) (A) (A)
                 (A) (A) (A) (A) (A) (A) (A) (A) (A) (A) (A) (A)
                 (A) (A) (A) (A) (A) (A) (A) (A) (A) (A) (A)
 The electronic state of the initial guess is 1-A.
 Requested convergence on RMS density matrix=1.00D-08 within 128 cycles.
 Requested convergence on MAX density matrix=1.00D-06.
 Requested convergence on             energy=1.00D-06.
 No special actions if energy rises.
 Keep R1 ints in memory in canonical form, NReq=2313571.
 SCF Done:  E(RHF) =  -115.068148677     A.U. after   13 cycles
             Convg  =    0.3820D-08             -V/T =  1.9996
 Variable Step   Value    
 -------- ---- -----------
    12      59   -3.037851
 ---------------------------------------------------------------------------------------------------
                            Z-MATRIX (ANGSTROMS AND DEGREES)
   CD    Cent   Atom    N1       Length/X        N2       Alpha/Y        N3        Beta/Z          J
 ---------------------------------------------------------------------------------------------------
      1      1  C 
      2      2  H        1   1.080060(     1)
      3      3  H        1   1.086683(     2)      2  108.543(     6)
      4      4  H        1   1.086684(     3)      2  108.544(     7)      3  118.205(    10)      0
      5      5  O        1   1.398571(     4)      2  107.151(     8)      3 -120.898(    11)      0
      6      6  H        5   0.939638(     5)      1  110.813(     9)      2 -174.056(    12)      0
 ---------------------------------------------------------------------------------------------------
                         Z-Matrix orientation:                         
 ---------------------------------------------------------------------
 Center     Atomic      Atomic             Coordinates (Angstroms)
 Number     Number       Type             X           Y           Z
 ---------------------------------------------------------------------
      1          6           0        0.000000    0.000000    0.000000
      2          1           0        0.000000    0.000000    1.080060
      3          1           0        1.030269    0.000000   -0.345580
      4          1           0       -0.486931   -0.907932   -0.345600
      5          8           0       -0.686243    1.146726   -0.412421
      6          1           0       -0.795827    1.152717   -1.345628
 ---------------------------------------------------------------------
                    Distance matrix (angstroms):
                    1          2          3          4          5
     1  C    0.000000
     2  H    1.080060   0.000000
     3  H    1.086683   1.758949   0.000000
     4  H    1.086684   1.758962   1.768117   0.000000
     5  O    1.398571   2.003349   2.065396   2.065383   0.000000
     6  H    1.942373   2.801081   2.379807   2.311223   0.939638
                    6
     6  H    0.000000
 Stoichiometry    CH4O
 Framework group  C1[X(CH4O)]
 Deg. of freedom    12
 Full point group                 C1      NOp   1
 Largest Abelian subgroup         C1      NOp   1
 Largest concise Abelian subgroup C1      NOp   1
                         Standard orientation:                         
 ---------------------------------------------------------------------
 Center     Atomic      Atomic             Coordinates (Angstroms)
 Number     Number       Type             X           Y           Z
 ---------------------------------------------------------------------
      1          6           0       -0.656560   -0.020260    0.000224
      2          1           0       -1.076087    0.968862   -0.110067
      3          1           0       -1.019209   -0.447617    0.931208
      4          1           0       -1.000379   -0.635675   -0.826779
      5          8           0        0.734999    0.119612    0.000152
      6          1           0        1.155040   -0.720910    0.003074
 ---------------------------------------------------------------------
 Rotational constants (GHZ):    131.8357523     25.4297660     24.5845297
 Standard basis: 6-311+G(d) (5D, 7F)
 There are    56 symmetry adapted basis functions of A   symmetry.
 Integral buffers will be    262144 words long.
 Raffenetti 1 integral format.
 Two-electron integral symmetry is turned on.
    56 basis functions,    92 primitive gaussians,    58 cartesian basis functions
     9 alpha electrons        9 beta electrons
       nuclear repulsion energy        40.8388423685 Hartrees.
 NAtoms=    6 NActive=    6 NUniq=    6 SFac= 7.50D-01 NAtFMM=   80 NAOKFM=F Big=F
 One-electron integrals computed using PRISM.
 NBasis=    56 RedAO= T  NBF=    56
 NBsUse=    56 1.00D-06 NBFU=    56
 Harris functional with IExCor=  205 diagonalized for initial guess.
 ExpMin= 4.38D-02 ExpMax= 8.59D+03 ExpMxC= 1.30D+03 IAcc=2 IRadAn=         0 AccDes= 0.00D+00
 HarFok:  IExCor=  205 AccDes= 0.00D+00 IRadAn=         0 IDoV= 1
 ScaDFX=  1.000000  1.000000  1.000000  1.000000
 FoFCou: FMM=F IPFlag=           0 FMFlag=      100000 FMFlg1=           0
         NFxFlg=           0 DoJE=T BraDBF=F KetDBF=T FulRan=T
         Omega=  0.000000  0.000000  1.000000  0.000000  0.000000 ICntrl=     500 IOpCl=  0
         NMat0=    1 NMatS0=    1 NMatT0=    0 NMatD0=    1 NMtDS0=    0 NMtDT0=    0
         I1Cent=           4 NGrid=           0.
 Petite list used in FoFCou.
 Mixing orbitals, IMix= 1 IMixAn=  0 NRI=1 NE=    9 Coef=  7.07106781D-01  7.07106781D-01
 Initial guess orbital symmetries:
       Occupied  (A) (A) (A) (A) (A) (A) (A) (A) (A)
       Virtual   (A) (A) (A) (A) (A) (A) (A) (A) (A) (A) (A) (A)
                 (A) (A) (A) (A) (A) (A) (A) (A) (A) (A) (A) (A)
                 (A) (A) (A) (A) (A) (A) (A) (A) (A) (A) (A) (A)
                 (A) (A) (A) (A) (A) (A) (A) (A) (A) (A) (A)
 The electronic state of the initial guess is 1-A.
 Requested convergence on RMS density matrix=1.00D-08 within 128 cycles.
 Requested convergence on MAX density matrix=1.00D-06.
 Requested convergence on             energy=1.00D-06.
 No special actions if energy rises.
 Keep R1 ints in memory in canonical form, NReq=2313571.
 SCF Done:  E(RHF) =  -115.068286726     A.U. after   13 cycles
             Convg  =    0.3768D-08             -V/T =  1.9996
 Variable Step   Value    
 -------- ---- -----------
    12      60   -3.142571
 ---------------------------------------------------------------------------------------------------
                            Z-MATRIX (ANGSTROMS AND DEGREES)
   CD    Cent   Atom    N1       Length/X        N2       Alpha/Y        N3        Beta/Z          J
 ---------------------------------------------------------------------------------------------------
      1      1  C 
      2      2  H        1   1.080060(     1)
      3      3  H        1   1.086683(     2)      2  108.543(     6)
      4      4  H        1   1.086684(     3)      2  108.544(     7)      3  118.205(    10)      0
      5      5  O        1   1.398571(     4)      2  107.151(     8)      3 -120.898(    11)      0
      6      6  H        5   0.939638(     5)      1  110.813(     9)      2 -180.056(    12)      0
 ---------------------------------------------------------------------------------------------------
                         Z-Matrix orientation:                         
 ---------------------------------------------------------------------
 Center     Atomic      Atomic             Coordinates (Angstroms)
 Number     Number       Type             X           Y           Z
 ---------------------------------------------------------------------
      1          6           0        0.000000    0.000000    0.000000
      2          1           0        0.000000    0.000000    1.080060
      3          1           0        1.030269    0.000000   -0.345580
      4          1           0       -0.486931   -0.907932   -0.345600
      5          8           0       -0.686243    1.146726   -0.412421
      6          1           0       -0.716327    1.198670   -1.350140
 ---------------------------------------------------------------------
                    Distance matrix (angstroms):
                    1          2          3          4          5
     1  C    0.000000
     2  H    1.080060   0.000000
     3  H    1.086683   1.758949   0.000000
     4  H    1.086684   1.758962   1.768117   0.000000
     5  O    1.398571   2.003349   2.065396   2.065383   0.000000
     6  H    1.942373   2.802821   2.344473   2.345101   0.939638
                    6
     6  H    0.000000
 Stoichiometry    CH4O
 Framework group  C1[X(CH4O)]
 Deg. of freedom    12
 Full point group                 C1      NOp   1
 Largest Abelian subgroup         C1      NOp   1
 Largest concise Abelian subgroup C1      NOp   1
                         Standard orientation:                         
 ---------------------------------------------------------------------
 Center     Atomic      Atomic             Coordinates (Angstroms)
 Number     Number       Type             X           Y           Z
 ---------------------------------------------------------------------
      1          6           0        0.656558   -0.020267    0.000003
      2          1           0        1.076654    0.974744   -0.001019
      3          1           0        1.009449   -0.545283   -0.883573
      4          1           0        1.009603   -0.543554    0.884543
      5          8           0       -0.735003    0.119581    0.000002
      6          1           0       -1.155030   -0.720953    0.000013
 ---------------------------------------------------------------------
 Rotational constants (GHZ):    131.8346652     25.4294193     24.5848488
 Standard basis: 6-311+G(d) (5D, 7F)
 There are    56 symmetry adapted basis functions of A   symmetry.
 Integral buffers will be    262144 words long.
 Raffenetti 1 integral format.
 Two-electron integral symmetry is turned on.
    56 basis functions,    92 primitive gaussians,    58 cartesian basis functions
     9 alpha electrons        9 beta electrons
       nuclear repulsion energy        40.8387688258 Hartrees.
 NAtoms=    6 NActive=    6 NUniq=    6 SFac= 7.50D-01 NAtFMM=   80 NAOKFM=F Big=F
 One-electron integrals computed using PRISM.
 NBasis=    56 RedAO= T  NBF=    56
 NBsUse=    56 1.00D-06 NBFU=    56
 Harris functional with IExCor=  205 diagonalized for initial guess.
 ExpMin= 4.38D-02 ExpMax= 8.59D+03 ExpMxC= 1.30D+03 IAcc=2 IRadAn=         0 AccDes= 0.00D+00
 HarFok:  IExCor=  205 AccDes= 0.00D+00 IRadAn=         0 IDoV= 1
 ScaDFX=  1.000000  1.000000  1.000000  1.000000
 FoFCou: FMM=F IPFlag=           0 FMFlag=      100000 FMFlg1=           0
         NFxFlg=           0 DoJE=T BraDBF=F KetDBF=T FulRan=T
         Omega=  0.000000  0.000000  1.000000  0.000000  0.000000 ICntrl=     500 IOpCl=  0
         NMat0=    1 NMatS0=    1 NMatT0=    0 NMatD0=    1 NMtDS0=    0 NMtDT0=    0
         I1Cent=           4 NGrid=           0.
 Petite list used in FoFCou.
 Mixing orbitals, IMix= 1 IMixAn=  0 NRI=1 NE=    9 Coef=  7.07106781D-01  7.07106781D-01
 Initial guess orbital symmetries:
       Occupied  (A) (A) (A) (A) (A) (A) (A) (A) (A)
       Virtual   (A) (A) (A) (A) (A) (A) (A) (A) (A) (A) (A) (A)
                 (A) (A) (A) (A) (A) (A) (A) (A) (A) (A) (A) (A)
                 (A) (A) (A) (A) (A) (A) (A) (A) (A) (A) (A) (A)
                 (A) (A) (A) (A) (A) (A) (A) (A) (A) (A) (A)
 The electronic state of the initial guess is 1-A.
 Requested convergence on RMS density matrix=1.00D-08 within 128 cycles.
 Requested convergence on MAX density matrix=1.00D-06.
 Requested convergence on             energy=1.00D-06.
 No special actions if energy rises.
 Keep R1 ints in memory in canonical form, NReq=2313571.
 SCF Done:  E(RHF) =  -115.068333391     A.U. after   13 cycles
             Convg  =    0.3735D-08             -V/T =  1.9996
 Scan completed.

 Summary of the potential surface scan:
   N      D3          SCF    
 ----  ---------  -----------
    1   179.9440   -115.06833
    2   173.9440   -115.06828
    3   167.9440   -115.06815
    4   161.9440   -115.06793
    5   155.9440   -115.06764
    6   149.9440   -115.06732
    7   143.9440   -115.06698
    8   137.9440   -115.06665
    9   131.9440   -115.06635
   10   125.9440   -115.06611
   11   119.9440   -115.06594
   12   113.9440   -115.06584
   13   107.9440   -115.06582
   14   101.9440   -115.06588
   15    95.9440   -115.06598
   16    89.9440   -115.06613
   17    83.9440   -115.06629
   18    77.9440   -115.06644
   19    71.9440   -115.06656
   20    65.9440   -115.06664
   21    59.9440   -115.06665
   22    53.9440   -115.06660
   23    47.9440   -115.06649
   24    41.9440   -115.06631
   25    35.9440   -115.06610
   26    29.9440   -115.06586
   27    23.9440   -115.06562
   28    17.9440   -115.06541
   29    11.9440   -115.06524
   30     5.9440   -115.06513
   31    -0.0560   -115.06509
   32    -6.0560   -115.06513
   33   -12.0560   -115.06524
   34   -18.0560   -115.06541
   35   -24.0560   -115.06563
   36   -30.0560   -115.06587
   37   -36.0560   -115.06610
   38   -42.0560   -115.06632
   39   -48.0560   -115.06649
   40   -54.0560   -115.06660
   41   -60.0560   -115.06665
   42   -66.0560   -115.06663
   43   -72.0560   -115.06656
   44   -78.0560   -115.06643
   45   -84.0560   -115.06628
   46   -90.0560   -115.06612
   47   -96.0560   -115.06598
   48  -102.0560   -115.06587
   49  -108.0560   -115.06582
   50  -114.0560   -115.06584
   51  -120.0560   -115.06594
   52  -126.0560   -115.06612
   53  -132.0560   -115.06636
   54  -138.0560   -115.06666
   55  -144.0560   -115.06699
   56  -150.0560   -115.06733
   57  -156.0560   -115.06765
   58  -162.0560   -115.06793
   59  -168.0560   -115.06815
   60  -174.0560   -115.06829
   61  -180.0560   -115.06833
 ----  ---------  -----------
  
 1|1|UNPC-PUB-7-042|Scan|RHF|6-311+G(d)|C1H4O1|CCLAB|10-May-2023|1||# s
 can rhf/6-311+g(d) guess=(mix,always) geom=nocrowd||Title Card Require
 d||0,1|C|H,1,B1|H,1,B2,2,A1|H,1,B3,2,A2,3,D1,0|O,1,B4,2,A3,3,D2,0|H,5,
 B5,1,A4,2,D3,0||B1=1.08005953|B2=1.08668321|B3=1.08668367|B4=1.3985705
 1|B5=0.93963827|A1=108.54281003|A2=108.54391369|A3=107.15078044|A4=110
 .81316402|D1=118.20498451|D2=-120.89785855|D3=179.94397191,s,60,-6.||V
 ersion=IA32W-G09RevA.02|State=1-A|HF=-115.0683334,-115.068285,-115.068
 1453,-115.0679255,-115.0676427,-115.067319,-115.0669794,-115.0666495,-
 115.0663534,-115.0661116,-115.0659388,-115.0658429,-115.065824,-115.06
 5875,-115.0659821,-115.0661264,-115.0662858,-115.0664376,-115.0665601,
 -115.0666355,-115.066651,-115.0666005,-115.066485,-115.0663129,-115.06
 60985,-115.0658612,-115.0656235,-115.0654084,-115.0652373,-115.0651274
 ,-115.06509,-115.0651288,-115.0652399,-115.0654119,-115.0656276,-115.0
 658655,-115.0661025,-115.0663163,-115.0664875,-115.0666017,-115.066651
 ,-115.0666343,-115.0665579,-115.0664347,-115.0662826,-115.0661232,-115
 .0659794,-115.0658732,-115.0658234,-115.0658437,-115.0659412,-115.0661
 154,-115.0663584,-115.0666553,-115.0669856,-115.0673251,-115.0676483,-
 115.0679301,-115.0681487,-115.0682867,-115.0683334|RMSD=3.735e-009,3.7
 69e-009,3.821e-009,3.842e-009,3.769e-009,3.565e-009,3.258e-009,2.953e-
 009,2.786e-009,2.794e-009,3.106e-009,3.109e-009,3.263e-009,3.543e-009,
 3.865e-009,4.132e-009,4.274e-009,4.277e-009,4.163e-009,3.988e-009,3.81
 9e-009,3.716e-009,3.767e-009,3.784e-009,3.690e-009,3.450e-009,3.099e-0
 09,2.765e-009,2.591e-009,2.632e-009,2.819e-009,2.630e-009,2.593e-009,2
 .770e-009,3.105e-009,3.455e-009,3.694e-009,3.784e-009,3.767e-009,3.715
 e-009,3.822e-009,3.991e-009,4.166e-009,4.278e-009,4.273e-009,4.128e-00
 9,3.860e-009,3.537e-009,3.258e-009,3.108e-009,3.107e-009,2.793e-009,2.
 788e-009,2.958e-009,3.264e-009,3.570e-009,3.772e-009,3.842e-009,3.820e
 -009,3.768e-009,3.735e-009|PG=C01 [X(C1H4O1)]||@


 BULLDOZER: SOMEONE WHO SLEEPS THROUGH SPEECHES.
 Job cpu time:  0 days  0 hours  0 minutes 41.0 seconds.
 File lengths (MBytes):  RWF=      5 Int=      0 D2E=      0 Chk=      2 Scr=      1
 Normal termination of Gaussian 09 at Wed May 10 14:21:34 2023.
