 Entering Link 1 = C:\G09W\l1.exe PID=     11968.
  
 Copyright (c) 1988,1990,1992,1993,1995,1998,2003,2009, Gaussian, Inc.
                  All Rights Reserved.
  
 This is part of the Gaussian(R) 09 program.  It is based on
 the Gaussian(R) 03 system (copyright 2003, Gaussian, Inc.),
 the Gaussian(R) 98 system (copyright 1998, Gaussian, Inc.),
 the Gaussian(R) 94 system (copyright 1995, Gaussian, Inc.),
 the Gaussian 92(TM) system (copyright 1992, Gaussian, Inc.),
 the Gaussian 90(TM) system (copyright 1990, Gaussian, Inc.),
 the Gaussian 88(TM) system (copyright 1988, Gaussian, Inc.),
 the Gaussian 86(TM) system (copyright 1986, Carnegie Mellon
 University), and the Gaussian 82(TM) system (copyright 1983,
 Carnegie Mellon University). Gaussian is a federally registered
 trademark of Gaussian, Inc.
  
 This software contains proprietary and confidential information,
 including trade secrets, belonging to Gaussian, Inc.
  
 This software is provided under written license and may be
 used, copied, transmitted, or stored only in accord with that
 written license.
  
 The following legend is applicable only to US Government
 contracts under FAR:
  
                    RESTRICTED RIGHTS LEGEND
  
 Use, reproduction and disclosure by the US Government is
 subject to restrictions as set forth in subparagraphs (a)
 and (c) of the Commercial Computer Software - Restricted
 Rights clause in FAR 52.227-19.
  
 Gaussian, Inc.
 340 Quinnipiac St., Bldg. 40, Wallingford CT 06492
  
  
 ---------------------------------------------------------------
 Warning -- This program may not be used in any manner that
 competes with the business of Gaussian, Inc. or will provide
 assistance to any competitor of Gaussian, Inc.  The licensee
 of this program is prohibited from giving any competitor of
 Gaussian, Inc. access to this program.  By using this program,
 the user acknowledges that Gaussian, Inc. is engaged in the
 business of creating and licensing software in the field of
 computational chemistry and represents and warrants to the
 licensee that it is not a competitor of Gaussian, Inc. and that
 it will not use this program in any manner prohibited above.
 ---------------------------------------------------------------
  

 Cite this work as:
 Gaussian 09, Revision A.02,
 M. J. Frisch, G. W. Trucks, H. B. Schlegel, G. E. Scuseria, 
 M. A. Robb, J. R. Cheeseman, G. Scalmani, V. Barone, B. Mennucci, 
 G. A. Petersson, H. Nakatsuji, M. Caricato, X. Li, H. P. Hratchian, 
 A. F. Izmaylov, J. Bloino, G. Zheng, J. L. Sonnenberg, M. Hada, 
 M. Ehara, K. Toyota, R. Fukuda, J. Hasegawa, M. Ishida, T. Nakajima, 
 Y. Honda, O. Kitao, H. Nakai, T. Vreven, J. A. Montgomery, Jr., 
 J. E. Peralta, F. Ogliaro, M. Bearpark, J. J. Heyd, E. Brothers, 
 K. N. Kudin, V. N. Staroverov, R. Kobayashi, J. Normand, 
 K. Raghavachari, A. Rendell, J. C. Burant, S. S. Iyengar, J. Tomasi, 
 M. Cossi, N. Rega, J. M. Millam, M. Klene, J. E. Knox, J. B. Cross, 
 V. Bakken, C. Adamo, J. Jaramillo, R. Gomperts, R. E. Stratmann, 
 O. Yazyev, A. J. Austin, R. Cammi, C. Pomelli, J. W. Ochterski, 
 R. L. Martin, K. Morokuma, V. G. Zakrzewski, G. A. Voth, 
 P. Salvador, J. J. Dannenberg, S. Dapprich, A. D. Daniels, 
 O. Farkas, J. B. Foresman, J. V. Ortiz, J. Cioslowski, 
 and D. J. Fox, Gaussian, Inc., Wallingford CT, 2009.
 
 ******************************************
 Gaussian 09:  IA32W-G09RevA.02 11-Jun-2009
                10-May-2023 
 ******************************************
 %chk=D:\homework2\Problem2\2.chk
 --------------------
 # rhf/6-311+g(d) opt
 --------------------
 1/18=20,19=15,38=1/1,3;
 2/9=110,12=2,17=6,18=5,40=1/2;
 3/5=4,6=6,7=11,11=1,16=1,25=1,30=1,71=1,116=1/1,2,3;
 4//1;
 5/5=2,38=5/2;
 6/7=2,8=2,9=2,10=2,28=1/1;
 7//1,2,3,16;
 1/18=20,19=15/3(2);
 2/9=110/2;
 99//99;
 2/9=110/2;
 3/5=4,6=6,7=11,11=1,16=1,25=1,30=1,71=1,116=1/1,2,3;
 4/5=5,16=3/1;
 5/5=2,38=5/2;
 7//1,2,3,16;
 1/18=20,19=15/3(-5);
 2/9=110/2;
 6/7=2,8=2,9=2,10=2,19=2,28=1/1;
 99/9=1/99;
 -------------------
 Title Card Required
 -------------------
 Symbolic Z-matrix:
 Charge =  0 Multiplicity = 1
 C                    -1.01266  -2.46835   0. 
 H                    -0.656    -3.47716   0. 
 H                    -0.65599  -1.96396  -0.87365 
 H                    -2.08266  -2.46834   0. 
 O                    -0.53598  -1.79425   1.16759 
 H                    -0.85432  -0.88857   1.16714 
 

 GradGradGradGradGradGradGradGradGradGradGradGradGradGradGradGradGradGrad
 Berny optimization.
 Initialization pass.
                           ----------------------------
                           !    Initial Parameters    !
                           ! (Angstroms and Degrees)  !
 --------------------------                            --------------------------
 ! Name  Definition              Value          Derivative Info.                !
 --------------------------------------------------------------------------------
 ! R1    R(1,2)                  1.07           estimate D2E/DX2                !
 ! R2    R(1,3)                  1.07           estimate D2E/DX2                !
 ! R3    R(1,4)                  1.07           estimate D2E/DX2                !
 ! R4    R(1,5)                  1.43           estimate D2E/DX2                !
 ! R5    R(5,6)                  0.96           estimate D2E/DX2                !
 ! A1    A(2,1,3)              109.4712         estimate D2E/DX2                !
 ! A2    A(2,1,4)              109.4712         estimate D2E/DX2                !
 ! A3    A(2,1,5)              109.4712         estimate D2E/DX2                !
 ! A4    A(3,1,4)              109.4712         estimate D2E/DX2                !
 ! A5    A(3,1,5)              109.4713         estimate D2E/DX2                !
 ! A6    A(4,1,5)              109.4712         estimate D2E/DX2                !
 ! A7    A(1,5,6)              109.5            estimate D2E/DX2                !
 ! D1    D(2,1,5,6)            179.8898         estimate D2E/DX2                !
 ! D2    D(3,1,5,6)             59.8898         estimate D2E/DX2                !
 ! D3    D(4,1,5,6)            -60.1102         estimate D2E/DX2                !
 --------------------------------------------------------------------------------
 Trust Radius=3.00D-01 FncErr=1.00D-07 GrdErr=1.00D-07
 Number of steps in this run=  25 maximum allowed number of steps= 100.
 GradGradGradGradGradGradGradGradGradGradGradGradGradGradGradGradGradGrad

                          Input orientation:                          
 ---------------------------------------------------------------------
 Center     Atomic      Atomic             Coordinates (Angstroms)
 Number     Number       Type             X           Y           Z
 ---------------------------------------------------------------------
      1          6           0       -1.012658   -2.468354    0.000000
      2          1           0       -0.656004   -3.477164    0.000000
      3          1           0       -0.655985   -1.963956   -0.873652
      4          1           0       -2.082658   -2.468341    0.000000
      5          8           0       -0.535983   -1.794252    1.167590
      6          1           0       -0.854323   -0.888570    1.167138
 ---------------------------------------------------------------------
                    Distance matrix (angstroms):
                    1          2          3          4          5
     1  C    0.000000
     2  H    1.070000   0.000000
     3  H    1.070000   1.747302   0.000000
     4  H    1.070000   1.747303   1.747303   0.000000
     5  O    1.430000   2.051796   2.051796   2.051796   0.000000
     6  H    1.970533   2.846465   2.315300   2.316613   0.960000
                    6
     6  H    0.000000
 Stoichiometry    CH4O
 Framework group  C1[X(CH4O)]
 Deg. of freedom    12
 Full point group                 C1      NOp   1
 Largest Abelian subgroup         C1      NOp   1
 Largest concise Abelian subgroup C1      NOp   1
                         Standard orientation:                         
 ---------------------------------------------------------------------
 Center     Atomic      Atomic             Coordinates (Angstroms)
 Number     Number       Type             X           Y           Z
 ---------------------------------------------------------------------
      1          6           0        0.674962   -0.019120    0.000000
      2          1           0        1.133309    0.947738   -0.001940
      3          1           0        0.977790   -0.559143   -0.872680
      4          1           0        0.978134   -0.555801    0.874620
      5          8           0       -0.747482    0.127687    0.000000
      6          1           0       -1.159146   -0.739570    0.000000
 ---------------------------------------------------------------------
 Rotational constants (GHZ):    132.1395219     24.7235149     23.8511684
 Standard basis: 6-311+G(d) (5D, 7F)
 There are    56 symmetry adapted basis functions of A   symmetry.
 Integral buffers will be    262144 words long.
 Raffenetti 1 integral format.
 Two-electron integral symmetry is turned on.
    56 basis functions,    92 primitive gaussians,    58 cartesian basis functions
     9 alpha electrons        9 beta electrons
       nuclear repulsion energy        40.4269938202 Hartrees.
 NAtoms=    6 NActive=    6 NUniq=    6 SFac= 7.50D-01 NAtFMM=   80 NAOKFM=F Big=F
 One-electron integrals computed using PRISM.
 NBasis=    56 RedAO= T  NBF=    56
 NBsUse=    56 1.00D-06 NBFU=    56
 Harris functional with IExCor=  205 diagonalized for initial guess.
 ExpMin= 4.38D-02 ExpMax= 8.59D+03 ExpMxC= 1.30D+03 IAcc=2 IRadAn=         0 AccDes= 0.00D+00
 HarFok:  IExCor=  205 AccDes= 0.00D+00 IRadAn=         0 IDoV= 1
 ScaDFX=  1.000000  1.000000  1.000000  1.000000
 FoFCou: FMM=F IPFlag=           0 FMFlag=      100000 FMFlg1=           0
         NFxFlg=           0 DoJE=T BraDBF=F KetDBF=T FulRan=T
         Omega=  0.000000  0.000000  1.000000  0.000000  0.000000 ICntrl=     500 IOpCl=  0
         NMat0=    1 NMatS0=    1 NMatT0=    0 NMatD0=    1 NMtDS0=    0 NMtDT0=    0
         I1Cent=           4 NGrid=           0.
 Petite list used in FoFCou.
 Initial guess orbital symmetries:
       Occupied  (A) (A) (A) (A) (A) (A) (A) (A) (A)
       Virtual   (A) (A) (A) (A) (A) (A) (A) (A) (A) (A) (A) (A)
                 (A) (A) (A) (A) (A) (A) (A) (A) (A) (A) (A) (A)
                 (A) (A) (A) (A) (A) (A) (A) (A) (A) (A) (A) (A)
                 (A) (A) (A) (A) (A) (A) (A) (A) (A) (A) (A)
 The electronic state of the initial guess is 1-A.
 Requested convergence on RMS density matrix=1.00D-08 within 128 cycles.
 Requested convergence on MAX density matrix=1.00D-06.
 Requested convergence on             energy=1.00D-06.
 No special actions if energy rises.
 Keep R1 ints in memory in canonical form, NReq=2313571.
 SCF Done:  E(RHF) =  -115.066390079     A.U. after   11 cycles
             Convg  =    0.4627D-08             -V/T =  1.9999

 **********************************************************************

            Population analysis using the SCF density.

 **********************************************************************

 Orbital symmetries:
       Occupied  (A) (A) (A) (A) (A) (A) (A) (A) (A)
       Virtual   (A) (A) (A) (A) (A) (A) (A) (A) (A) (A) (A) (A)
                 (A) (A) (A) (A) (A) (A) (A) (A) (A) (A) (A) (A)
                 (A) (A) (A) (A) (A) (A) (A) (A) (A) (A) (A) (A)
                 (A) (A) (A) (A) (A) (A) (A) (A) (A) (A) (A)
 The electronic state is 1-A.
 Alpha  occ. eigenvalues --  -20.55451 -11.26679  -1.35516  -0.93577  -0.69085
 Alpha  occ. eigenvalues --   -0.62697  -0.59997  -0.50484  -0.45190
 Alpha virt. eigenvalues --    0.06971   0.08837   0.10542   0.10587   0.23990
 Alpha virt. eigenvalues --    0.26237   0.27794   0.28658   0.30145   0.31763
 Alpha virt. eigenvalues --    0.32147   0.36289   0.42875   0.54019   0.55816
 Alpha virt. eigenvalues --    0.70299   0.74026   0.81385   0.82154   0.88446
 Alpha virt. eigenvalues --    1.09471   1.26090   1.30001   1.30316   1.55616
 Alpha virt. eigenvalues --    1.64001   1.80999   1.83248   1.83707   2.02304
 Alpha virt. eigenvalues --    2.48347   2.76937   2.77984   2.79883   3.16481
 Alpha virt. eigenvalues --    3.23502   3.38203   3.40544   3.53816   3.60912
 Alpha virt. eigenvalues --    3.78330   4.30329   5.54232   5.65718   5.94772
 Alpha virt. eigenvalues --   24.62602  51.55288
          Condensed to atoms (all electrons):
              1          2          3          4          5          6
     1  C    5.226571   0.401532   0.404098   0.404109   0.109002  -0.026526
     2  H    0.401532   0.465094  -0.033663  -0.033696  -0.045442   0.007649
     3  H    0.404098  -0.033663   0.517361  -0.042887  -0.046009  -0.005045
     4  H    0.404109  -0.033696  -0.042887   0.517315  -0.046026  -0.005037
     5  O    0.109002  -0.045442  -0.046009  -0.046026   8.291954   0.239821
     6  H   -0.026526   0.007649  -0.005045  -0.005037   0.239821   0.417943
 Mulliken atomic charges:
              1
     1  C   -0.518788
     2  H    0.238526
     3  H    0.206145
     4  H    0.206222
     5  O   -0.503300
     6  H    0.371194
 Sum of Mulliken atomic charges =   0.00000
 Mulliken charges with hydrogens summed into heavy atoms:
              1
     1  C    0.132106
     5  O   -0.132106
 Sum of Mulliken charges with hydrogens summed into heavy atoms =   0.00000
 Electronic spatial extent (au):  <R**2>=             84.1430
 Charge=              0.0000 electrons
 Dipole moment (field-independent basis, Debye):
    X=              1.1415    Y=             -1.8197    Z=             -0.0002  Tot=              2.1481
 Quadrupole moment (field-independent basis, Debye-Ang):
   XX=            -12.9114   YY=            -12.1761   ZZ=            -13.7822
   XY=              2.6678   XZ=             -0.0004   YZ=             -0.0002
 Traceless Quadrupole moment (field-independent basis, Debye-Ang):
   XX=              0.0452   YY=              0.7804   ZZ=             -0.8256
   XY=              2.6678   XZ=             -0.0004   YZ=             -0.0002
 Octapole moment (field-independent basis, Debye-Ang**2):
  XXX=             -3.6274  YYY=             -0.8424  ZZZ=              0.0029  XYY=             -1.4312
  XXY=             -2.6471  XXZ=             -0.0006  XZZ=             -0.1362  YZZ=             -0.8454
  YYZ=             -0.0033  XYZ=             -0.0007
 Hexadecapole moment (field-independent basis, Debye-Ang**3):
 XXXX=            -61.3360 YYYY=            -19.5357 ZZZZ=            -19.3006 XXXY=              4.9150
 XXXZ=             -0.0011 YYYX=              3.2844 YYYZ=              0.0001 ZZZX=              0.0029
 ZZZY=             -0.0004 XXYY=            -12.4425 XXZZ=            -14.4515 YYZZ=             -6.5406
 XXYZ=             -0.0012 YYXZ=             -0.0036 ZZXY=              0.0668
 N-N= 4.042699382021D+01 E-N=-3.520878629094D+02  KE= 1.150746046558D+02
 Calling FoFJK, ICntrl=      2127 FMM=F ISym2X=0 I1Cent= 0 IOpClX= 0 NMat=1 NMatS=1 NMatT=0.
 ***** Axes restored to original set *****
 -------------------------------------------------------------------
 Center     Atomic                   Forces (Hartrees/Bohr)
 Number     Number              X              Y              Z
 -------------------------------------------------------------------
      1        6           0.006364318    0.019840329    0.021848615
      2        1           0.004478641   -0.005159424    0.004334807
      3        1           0.002995247    0.002232453   -0.011167109
      4        1          -0.011168395   -0.002765894   -0.002491626
      5        8          -0.010105650    0.007073400   -0.012512958
      6        1           0.007435839   -0.021220864   -0.000011729
 -------------------------------------------------------------------
 Cartesian Forces:  Max     0.021848615 RMS     0.010720108

 GradGradGradGradGradGradGradGradGradGradGradGradGradGradGradGradGradGrad
 Berny optimization.
 Internal  Forces:  Max     0.022485905 RMS     0.009386138
 Search for a local minimum.
 Step number   1 out of a maximum of   25
 All quantities printed in internal units (Hartrees-Bohrs-Radians)
 Mixed Optimization -- RFO/linear search
 Second derivative matrix not updated -- first step.
 The second derivative matrix:
                          R1        R2        R3        R4        R5
           R1           0.37230
           R2           0.00000   0.37230
           R3           0.00000   0.00000   0.37230
           R4           0.00000   0.00000   0.00000   0.40989
           R5           0.00000   0.00000   0.00000   0.00000   0.55473
           A1           0.00000   0.00000   0.00000   0.00000   0.00000
           A2           0.00000   0.00000   0.00000   0.00000   0.00000
           A3           0.00000   0.00000   0.00000   0.00000   0.00000
           A4           0.00000   0.00000   0.00000   0.00000   0.00000
           A5           0.00000   0.00000   0.00000   0.00000   0.00000
           A6           0.00000   0.00000   0.00000   0.00000   0.00000
           A7           0.00000   0.00000   0.00000   0.00000   0.00000
           D1           0.00000   0.00000   0.00000   0.00000   0.00000
           D2           0.00000   0.00000   0.00000   0.00000   0.00000
           D3           0.00000   0.00000   0.00000   0.00000   0.00000
                          A1        A2        A3        A4        A5
           A1           0.16000
           A2           0.00000   0.16000
           A3           0.00000   0.00000   0.16000
           A4           0.00000   0.00000   0.00000   0.16000
           A5           0.00000   0.00000   0.00000   0.00000   0.16000
           A6           0.00000   0.00000   0.00000   0.00000   0.00000
           A7           0.00000   0.00000   0.00000   0.00000   0.00000
           D1           0.00000   0.00000   0.00000   0.00000   0.00000
           D2           0.00000   0.00000   0.00000   0.00000   0.00000
           D3           0.00000   0.00000   0.00000   0.00000   0.00000
                          A6        A7        D1        D2        D3
           A6           0.16000
           A7           0.00000   0.16000
           D1           0.00000   0.00000   0.01295
           D2           0.00000   0.00000   0.00000   0.01295
           D3           0.00000   0.00000   0.00000   0.00000   0.01295
     Eigenvalues ---    0.01295   0.10344   0.10344   0.16000   0.16000
     Eigenvalues ---    0.16000   0.16000   0.37230   0.37230   0.37230
     Eigenvalues ---    0.40989   0.554731000.000001000.000001000.00000
 RFO step:  Lambda=-3.87195537D-03 EMin= 1.29493781D-02
 Linear search not attempted -- first point.
 Iteration  1 RMS(Cart)=  0.04086933 RMS(Int)=  0.00104071
 Iteration  2 RMS(Cart)=  0.00085343 RMS(Int)=  0.00066597
 Iteration  3 RMS(Cart)=  0.00000050 RMS(Int)=  0.00066597
 Variable       Old X    -DE/DX   Delta X   Delta X   Delta X     New X
                                 (Linear)    (Quad)   (Total)
    R1        2.02201   0.00636   0.00000   0.01690   0.01690   2.03891
    R2        2.02201   0.01117   0.00000   0.02969   0.02969   2.05170
    R3        2.02201   0.01117   0.00000   0.02969   0.02969   2.05170
    R4        2.70231  -0.01779   0.00000  -0.04298  -0.04298   2.65932
    R5        1.81414  -0.02249   0.00000  -0.04025  -0.04025   1.77388
    A1        1.91063  -0.00037   0.00000  -0.00860  -0.00838   1.90225
    A2        1.91063  -0.00036   0.00000  -0.00856  -0.00835   1.90229
    A3        1.91063  -0.01049   0.00000  -0.07034  -0.07013   1.84051
    A4        1.91063  -0.00137   0.00000   0.00431   0.00286   1.91349
    A5        1.91063   0.00630   0.00000   0.04163   0.04090   1.95153
    A6        1.91063   0.00629   0.00000   0.04157   0.04084   1.95147
    A7        1.91114  -0.00005   0.00000  -0.00033  -0.00033   1.91080
    D1        3.13967   0.00000   0.00000   0.00026   0.00026   3.13993
    D2        1.04527   0.00302   0.00000   0.02838   0.02967   1.07494
    D3       -1.04912  -0.00301   0.00000  -0.02785  -0.02914  -1.07826
         Item               Value     Threshold  Converged?
 Maximum Force            0.022486     0.000450     NO 
 RMS     Force            0.009386     0.000300     NO 
 Maximum Displacement     0.083175     0.001800     NO 
 RMS     Displacement     0.040927     0.001200     NO 
 Predicted change in Energy=-1.977002D-03
 GradGradGradGradGradGradGradGradGradGradGradGradGradGradGradGradGradGrad

                          Input orientation:                          
 ---------------------------------------------------------------------
 Center     Atomic      Atomic             Coordinates (Angstroms)
 Number     Number       Type             X           Y           Z
 ---------------------------------------------------------------------
      1          6           0       -1.021324   -2.442592    0.000664
      2          1           0       -0.638517   -3.450410    0.044014
      3          1           0       -0.657288   -1.964978   -0.903843
      4          1           0       -2.106350   -2.477175   -0.016367
      5          8           0       -0.536569   -1.807211    1.158967
      6          1           0       -0.837563   -0.918274    1.177643
 ---------------------------------------------------------------------
                    Distance matrix (angstroms):
                    1          2          3          4          5
     1  C    0.000000
     2  H    1.078943   0.000000
     3  H    1.085711   1.762185   0.000000
     4  H    1.085711   1.762205   1.774750   0.000000
     5  O    1.407254   1.988371   2.072354   2.072312   0.000000
     6  H    1.934578   2.781447   2.336809   2.337874   0.938699
                    6
     6  H    0.000000
 Stoichiometry    CH4O
 Framework group  C1[X(CH4O)]
 Deg. of freedom    12
 Full point group                 C1      NOp   1
 Largest Abelian subgroup         C1      NOp   1
 Largest concise Abelian subgroup C1      NOp   1
                         Standard orientation:                         
 ---------------------------------------------------------------------
 Center     Atomic      Atomic             Coordinates (Angstroms)
 Number     Number       Type             X           Y           Z
 ---------------------------------------------------------------------
      1          6           0        0.661398   -0.020676    0.000006
      2          1           0        1.049831    0.985920   -0.001770
      3          1           0        1.015695   -0.537664   -0.886541
      4          1           0        1.015926   -0.534658    0.888207
      5          8           0       -0.739025    0.117813    0.000003
      6          1           0       -1.137642   -0.732046    0.000043
 ---------------------------------------------------------------------
 Rotational constants (GHZ):    130.9126336     25.2890005     24.4496586
 Standard basis: 6-311+G(d) (5D, 7F)
 There are    56 symmetry adapted basis functions of A   symmetry.
 Integral buffers will be    262144 words long.
 Raffenetti 1 integral format.
 Two-electron integral symmetry is turned on.
    56 basis functions,    92 primitive gaussians,    58 cartesian basis functions
     9 alpha electrons        9 beta electrons
       nuclear repulsion energy        40.7489244355 Hartrees.
 NAtoms=    6 NActive=    6 NUniq=    6 SFac= 7.50D-01 NAtFMM=   80 NAOKFM=F Big=F
 One-electron integrals computed using PRISM.
 NBasis=    56 RedAO= T  NBF=    56
 NBsUse=    56 1.00D-06 NBFU=    56
 Initial guess read from the read-write file.
 B after Tr=     0.000000    0.000000    0.000000
         Rot=    1.000000    0.000000    0.000000    0.000000 Ang=   0.00 deg.
 Initial guess orbital symmetries:
       Occupied  (A) (A) (A) (A) (A) (A) (A) (A) (A)
       Virtual   (A) (A) (A) (A) (A) (A) (A) (A) (A) (A) (A) (A)
                 (A) (A) (A) (A) (A) (A) (A) (A) (A) (A) (A) (A)
                 (A) (A) (A) (A) (A) (A) (A) (A) (A) (A) (A) (A)
                 (A) (A) (A) (A) (A) (A) (A) (A) (A) (A) (A)
 Harris functional with IExCor=  205 diagonalized for initial guess.
 ExpMin= 4.38D-02 ExpMax= 8.59D+03 ExpMxC= 1.30D+03 IAcc=2 IRadAn=         0 AccDes= 0.00D+00
 HarFok:  IExCor=  205 AccDes= 0.00D+00 IRadAn=         0 IDoV= 1
 ScaDFX=  1.000000  1.000000  1.000000  1.000000
 FoFCou: FMM=F IPFlag=           0 FMFlag=      100000 FMFlg1=           0
         NFxFlg=           0 DoJE=T BraDBF=F KetDBF=T FulRan=T
         Omega=  0.000000  0.000000  1.000000  0.000000  0.000000 ICntrl=     500 IOpCl=  0
         NMat0=    1 NMatS0=    1 NMatT0=    0 NMatD0=    1 NMtDS0=    0 NMtDT0=    0
         I1Cent=           4 NGrid=           0.
 Petite list used in FoFCou.
 Requested convergence on RMS density matrix=1.00D-08 within 128 cycles.
 Requested convergence on MAX density matrix=1.00D-06.
 Requested convergence on             energy=1.00D-06.
 No special actions if energy rises.
 Keep R1 ints in memory in canonical form, NReq=2313571.
 SCF Done:  E(RHF) =  -115.068124752     A.U. after   10 cycles
             Convg  =    0.6407D-08             -V/T =  1.9997
 Calling FoFJK, ICntrl=      2127 FMM=F ISym2X=0 I1Cent= 0 IOpClX= 0 NMat=1 NMatS=1 NMatT=0.
 ***** Axes restored to original set *****
 -------------------------------------------------------------------
 Center     Atomic                   Forces (Hartrees/Bohr)
 Number     Number              X              Y              Z
 -------------------------------------------------------------------
      1        6           0.005389432   -0.001444701    0.007982354
      2        1          -0.001375386   -0.001623521   -0.003176585
      3        1          -0.000449921    0.000253761   -0.000139165
      4        1          -0.000083754    0.000385835   -0.000369635
      5        8          -0.004243086    0.000472632   -0.006688158
      6        1           0.000762714    0.001955995    0.002391190
 -------------------------------------------------------------------
 Cartesian Forces:  Max     0.007982354 RMS     0.003189671

 GradGradGradGradGradGradGradGradGradGradGradGradGradGradGradGradGradGrad
 Berny optimization.
 Using GEDIIS/GDIIS optimizer.
 Internal  Forces:  Max     0.006095639 RMS     0.002427998
 Search for a local minimum.
 Step number   2 out of a maximum of   25
 All quantities printed in internal units (Hartrees-Bohrs-Radians)
 Mixed Optimization -- RFO/linear search
 Update second derivatives using D2CorX and points    1    2
 DE= -1.73D-03 DEPred=-1.98D-03 R= 8.77D-01
 SS=  1.41D+00  RLast= 1.25D-01 DXNew= 5.0454D-01 3.7532D-01
 Trust test= 8.77D-01 RLast= 1.25D-01 DXMaxT set to 3.75D-01
 The second derivative matrix:
                          R1        R2        R3        R4        R5
           R1           0.36872
           R2          -0.00439   0.36845
           R3          -0.00439  -0.00385   0.36845
           R4           0.01145   0.01519   0.01519   0.37413
           R5           0.00668   0.00334   0.00334  -0.02503   0.55766
           A1           0.00362   0.00674   0.00674  -0.00984  -0.01405
           A2           0.00362   0.00674   0.00674  -0.00984  -0.01406
           A3          -0.00226  -0.00974  -0.00973   0.00198   0.02631
           A4          -0.00116  -0.00215  -0.00215   0.00317   0.00448
           A5          -0.00171  -0.00048  -0.00048   0.00670  -0.00194
           A6          -0.00172  -0.00050  -0.00050   0.00671  -0.00190
           A7          -0.00606  -0.01234  -0.01233   0.01568   0.02687
           D1          -0.00001  -0.00001  -0.00001   0.00002   0.00002
           D2           0.00493   0.01020   0.01020  -0.01265  -0.02237
           D3          -0.00494  -0.01022  -0.01022   0.01269   0.02243
                          A1        A2        A3        A4        A5
           A1           0.15981
           A2          -0.00019   0.15981
           A3          -0.00819  -0.00820   0.19028
           A4           0.00008   0.00008   0.00258   0.15997
           A5           0.00417   0.00417  -0.00845  -0.00133   0.16089
           A6           0.00416   0.00416  -0.00842  -0.00132   0.00088
           A7          -0.00126  -0.00127   0.01852   0.00037  -0.00809
           D1           0.00000   0.00000   0.00001   0.00000  -0.00001
           D2           0.00126   0.00127  -0.01579  -0.00037   0.00675
           D3          -0.00126  -0.00126   0.01582   0.00037  -0.00677
                          A6        A7        D1        D2        D3
           A6           0.16087
           A7          -0.00807   0.16549
           D1          -0.00001   0.00000   0.01295
           D2           0.00674  -0.00497   0.00000   0.01742
           D3          -0.00675   0.00497   0.00000  -0.00447   0.01743
 Use linear search instead of GDIIS.
     Eigenvalues ---    0.01295   0.10563   0.10639   0.14964   0.16000
     Eigenvalues ---    0.16000   0.20186   0.34844   0.37230   0.37333
     Eigenvalues ---    0.39141   0.566511000.000001000.000001000.00000
 RFO step:  Lambda=-3.68024694D-04 EMin= 1.29493554D-02
 Quartic linear search produced a step of -0.10230.
 Iteration  1 RMS(Cart)=  0.01144478 RMS(Int)=  0.00013569
 Iteration  2 RMS(Cart)=  0.00013113 RMS(Int)=  0.00007362
 Iteration  3 RMS(Cart)=  0.00000000 RMS(Int)=  0.00007362
 Variable       Old X    -DE/DX   Delta X   Delta X   Delta X     New X
                                 (Linear)    (Quad)   (Total)
    R1        2.03891   0.00090  -0.00173   0.00562   0.00389   2.04280
    R2        2.05170   0.00008  -0.00304   0.00625   0.00321   2.05491
    R3        2.05170   0.00008  -0.00304   0.00625   0.00321   2.05491
    R4        2.65932  -0.00364   0.00440  -0.01672  -0.01232   2.64700
    R5        1.77388   0.00166   0.00412  -0.00550  -0.00138   1.77250
    A1        1.90225  -0.00147   0.00086  -0.00710  -0.00634   1.89591
    A2        1.90229  -0.00147   0.00085  -0.00710  -0.00634   1.89594
    A3        1.84051   0.00610   0.00717   0.02232   0.02940   1.86991
    A4        1.91349  -0.00105  -0.00029  -0.01058  -0.01077   1.90272
    A5        1.95153  -0.00097  -0.00418   0.00154  -0.00263   1.94889
    A6        1.95147  -0.00096  -0.00418   0.00157  -0.00260   1.94887
    A7        1.91080   0.00482   0.00003   0.02689   0.02692   1.93773
    D1        3.13993   0.00000  -0.00003   0.00043   0.00040   3.14033
    D2        1.07494  -0.00140  -0.00304  -0.00533  -0.00852   1.06643
    D3       -1.07826   0.00141   0.00298   0.00620   0.00934  -1.06893
         Item               Value     Threshold  Converged?
 Maximum Force            0.006096     0.000450     NO 
 RMS     Force            0.002428     0.000300     NO 
 Maximum Displacement     0.020398     0.001800     NO 
 RMS     Displacement     0.011365     0.001200     NO 
 Predicted change in Energy=-2.093816D-04
 GradGradGradGradGradGradGradGradGradGradGradGradGradGradGradGradGradGrad

                          Input orientation:                          
 ---------------------------------------------------------------------
 Center     Atomic      Atomic             Coordinates (Angstroms)
 Number     Number       Type             X           Y           Z
 ---------------------------------------------------------------------
      1          6           0       -1.016702   -2.446200    0.006080
      2          1           0       -0.641877   -3.459775    0.033220
      3          1           0       -0.657611   -1.967267   -0.901741
      4          1           0       -2.103414   -2.478187   -0.016196
      5          8           0       -0.541885   -1.799647    1.154371
      6          1           0       -0.836123   -0.909563    1.185343
 ---------------------------------------------------------------------
                    Distance matrix (angstroms):
                    1          2          3          4          5
     1  C    0.000000
     2  H    1.081002   0.000000
     3  H    1.087411   1.761244   0.000000
     4  H    1.087411   1.761263   1.770755   0.000000
     5  O    1.400733   2.005742   2.066176   2.066159   0.000000
     6  H    1.945385   2.805120   2.346598   2.347403   0.937968
                    6
     6  H    0.000000
 Stoichiometry    CH4O
 Framework group  C1[X(CH4O)]
 Deg. of freedom    12
 Full point group                 C1      NOp   1
 Largest Abelian subgroup         C1      NOp   1
 Largest concise Abelian subgroup C1      NOp   1
                         Standard orientation:                         
 ---------------------------------------------------------------------
 Center     Atomic      Atomic             Coordinates (Angstroms)
 Number     Number       Type             X           Y           Z
 ---------------------------------------------------------------------
      1          6           0        0.658014   -0.020375    0.000004
      2          1           0        1.078055    0.975682   -0.001311
      3          1           0        1.008693   -0.546389   -0.884753
      4          1           0        1.008890   -0.544167    0.886001
      5          8           0       -0.735726    0.119411    0.000003
      6          1           0       -1.157917   -0.718168    0.000014
 ---------------------------------------------------------------------
 Rotational constants (GHZ):    131.6986936     25.3633456     24.5295740
 Standard basis: 6-311+G(d) (5D, 7F)
 There are    56 symmetry adapted basis functions of A   symmetry.
 Integral buffers will be    262144 words long.
 Raffenetti 1 integral format.
 Two-electron integral symmetry is turned on.
    56 basis functions,    92 primitive gaussians,    58 cartesian basis functions
     9 alpha electrons        9 beta electrons
       nuclear repulsion energy        40.8038756194 Hartrees.
 NAtoms=    6 NActive=    6 NUniq=    6 SFac= 7.50D-01 NAtFMM=   80 NAOKFM=F Big=F
 One-electron integrals computed using PRISM.
 NBasis=    56 RedAO= T  NBF=    56
 NBsUse=    56 1.00D-06 NBFU=    56
 Initial guess read from the read-write file.
 B after Tr=     0.000000    0.000000    0.000000
         Rot=    1.000000    0.000000    0.000000    0.000000 Ang=   0.00 deg.
 Initial guess orbital symmetries:
       Occupied  (A) (A) (A) (A) (A) (A) (A) (A) (A)
       Virtual   (A) (A) (A) (A) (A) (A) (A) (A) (A) (A) (A) (A)
                 (A) (A) (A) (A) (A) (A) (A) (A) (A) (A) (A) (A)
                 (A) (A) (A) (A) (A) (A) (A) (A) (A) (A) (A) (A)
                 (A) (A) (A) (A) (A) (A) (A) (A) (A) (A) (A)
 Harris functional with IExCor=  205 diagonalized for initial guess.
 ExpMin= 4.38D-02 ExpMax= 8.59D+03 ExpMxC= 1.30D+03 IAcc=2 IRadAn=         0 AccDes= 0.00D+00
 HarFok:  IExCor=  205 AccDes= 0.00D+00 IRadAn=         0 IDoV= 1
 ScaDFX=  1.000000  1.000000  1.000000  1.000000
 FoFCou: FMM=F IPFlag=           0 FMFlag=      100000 FMFlg1=           0
         NFxFlg=           0 DoJE=T BraDBF=F KetDBF=T FulRan=T
         Omega=  0.000000  0.000000  1.000000  0.000000  0.000000 ICntrl=     500 IOpCl=  0
         NMat0=    1 NMatS0=    1 NMatT0=    0 NMatD0=    1 NMtDS0=    0 NMtDT0=    0
         I1Cent=           4 NGrid=           0.
 Petite list used in FoFCou.
 Requested convergence on RMS density matrix=1.00D-08 within 128 cycles.
 Requested convergence on MAX density matrix=1.00D-06.
 Requested convergence on             energy=1.00D-06.
 No special actions if energy rises.
 Keep R1 ints in memory in canonical form, NReq=2313571.
 SCF Done:  E(RHF) =  -115.068322838     A.U. after    9 cycles
             Convg  =    0.7589D-08             -V/T =  1.9997
 Calling FoFJK, ICntrl=      2127 FMM=F ISym2X=0 I1Cent= 0 IOpClX= 0 NMat=1 NMatS=1 NMatT=0.
 ***** Axes restored to original set *****
 -------------------------------------------------------------------
 Center     Atomic                   Forces (Hartrees/Bohr)
 Number     Number              X              Y              Z
 -------------------------------------------------------------------
      1        6           0.000265730    0.001014217    0.001020518
      2        1          -0.000267316    0.000735021   -0.000007434
      3        1          -0.000388107   -0.000476231    0.000325830
      4        1           0.000620038   -0.000117603   -0.000293463
      5        8           0.000603920   -0.002888542   -0.000691340
      6        1          -0.000834266    0.001733138   -0.000354111
 -------------------------------------------------------------------
 Cartesian Forces:  Max     0.002888542 RMS     0.000964134

 GradGradGradGradGradGradGradGradGradGradGradGradGradGradGradGradGradGrad
 Berny optimization.
 Using GEDIIS/GDIIS optimizer.
 Internal  Forces:  Max     0.001894673 RMS     0.000748746
 Search for a local minimum.
 Step number   3 out of a maximum of   25
 All quantities printed in internal units (Hartrees-Bohrs-Radians)
 Mixed Optimization -- En-DIIS/RFO-DIIS
 Update second derivatives using D2CorX and points    1    2    3
 DE= -1.98D-04 DEPred=-2.09D-04 R= 9.46D-01
 SS=  1.41D+00  RLast= 4.64D-02 DXNew= 6.3121D-01 1.3907D-01
 Trust test= 9.46D-01 RLast= 4.64D-02 DXMaxT set to 3.75D-01
 The second derivative matrix:
                          R1        R2        R3        R4        R5
           R1           0.37572
           R2           0.00113   0.37281
           R3           0.00113   0.00051   0.37281
           R4           0.01105   0.01533   0.01534   0.33682
           R5          -0.00546  -0.00643  -0.00643  -0.01138   0.57432
           A1           0.00080   0.00456   0.00456  -0.01293  -0.00806
           A2           0.00081   0.00457   0.00457  -0.01293  -0.00807
           A3           0.00555  -0.00390  -0.00390   0.02441   0.00496
           A4           0.00143   0.00010   0.00010  -0.01384   0.00581
           A5          -0.00381  -0.00212  -0.00213   0.00701   0.00159
           A6          -0.00381  -0.00214  -0.00214   0.00705   0.00161
           A7           0.00654  -0.00258  -0.00258   0.02757   0.00073
           D1          -0.00002  -0.00002  -0.00002   0.00008   0.00003
           D2          -0.00052   0.00582   0.00582  -0.00476  -0.01558
           D3           0.00048  -0.00586  -0.00586   0.00491   0.01562
                          A1        A2        A3        A4        A5
           A1           0.16066
           A2           0.00066   0.16066
           A3          -0.00937  -0.00938   0.18520
           A4          -0.00242  -0.00243   0.01578   0.15332
           A5           0.00503   0.00504  -0.01098  -0.00201   0.16154
           A6           0.00503   0.00503  -0.01095  -0.00199   0.00153
           A7          -0.00525  -0.00525   0.02500   0.01071  -0.01197
           D1           0.00001   0.00001  -0.00004   0.00002   0.00000
           D2           0.00412   0.00412  -0.02656   0.00104   0.00836
           D3          -0.00410  -0.00410   0.02650  -0.00100  -0.00837
                          A6        A7        D1        D2        D3
           A6           0.16151
           A7          -0.01195   0.18400
           D1           0.00000  -0.00005   0.01295
           D2           0.00833  -0.01737   0.00000   0.02013
           D3          -0.00834   0.01730   0.00000  -0.00719   0.02015
 Use linear search instead of GDIIS.
     Eigenvalues ---    0.01295   0.10469   0.10618   0.14089   0.16000
     Eigenvalues ---    0.16189   0.22716   0.33839   0.37230   0.37445
     Eigenvalues ---    0.38778   0.575921000.000001000.000001000.00000
 RFO step:  Lambda=-2.07597885D-05 EMin= 1.29490004D-02
 Quartic linear search produced a step of -0.04208.
 Iteration  1 RMS(Cart)=  0.00197656 RMS(Int)=  0.00000317
 Iteration  2 RMS(Cart)=  0.00000415 RMS(Int)=  0.00000126
 Iteration  3 RMS(Cart)=  0.00000000 RMS(Int)=  0.00000126
 Variable       Old X    -DE/DX   Delta X   Delta X   Delta X     New X
                                 (Linear)    (Quad)   (Total)
    R1        2.04280  -0.00078  -0.00016  -0.00162  -0.00178   2.04102
    R2        2.05491  -0.00061  -0.00014  -0.00124  -0.00137   2.05353
    R3        2.05491  -0.00061  -0.00014  -0.00124  -0.00137   2.05353
    R4        2.64700  -0.00147   0.00052  -0.00460  -0.00409   2.64292
    R5        1.77250   0.00189   0.00006   0.00310   0.00316   1.77566
    A1        1.89591  -0.00016   0.00027  -0.00175  -0.00149   1.89443
    A2        1.89594  -0.00016   0.00027  -0.00176  -0.00149   1.89445
    A3        1.86991  -0.00019  -0.00124   0.00146   0.00022   1.87013
    A4        1.90272  -0.00034   0.00045  -0.00276  -0.00230   1.90042
    A5        1.94889   0.00042   0.00011   0.00233   0.00244   1.95134
    A6        1.94887   0.00042   0.00011   0.00234   0.00245   1.95132
    A7        1.93773  -0.00086  -0.00113  -0.00254  -0.00367   1.93405
    D1        3.14033   0.00000  -0.00002   0.00030   0.00028   3.14061
    D2        1.06643   0.00008   0.00036   0.00020   0.00056   1.06698
    D3       -1.06893  -0.00007  -0.00039   0.00040   0.00000  -1.06893
         Item               Value     Threshold  Converged?
 Maximum Force            0.001895     0.000450     NO 
 RMS     Force            0.000749     0.000300     NO 
 Maximum Displacement     0.003160     0.001800     NO 
 RMS     Displacement     0.001979     0.001200     NO 
 Predicted change in Energy=-1.076141D-05
 GradGradGradGradGradGradGradGradGradGradGradGradGradGradGradGradGradGrad

                          Input orientation:                          
 ---------------------------------------------------------------------
 Center     Atomic      Atomic             Coordinates (Angstroms)
 Number     Number       Type             X           Y           Z
 ---------------------------------------------------------------------
      1          6           0       -1.016199   -2.445254    0.007406
      2          1           0       -0.642552   -3.458299    0.033032
      3          1           0       -0.658479   -1.967851   -0.900892
      4          1           0       -2.102126   -2.477928   -0.016616
      5          8           0       -0.541149   -1.801319    1.154434
      6          1           0       -0.837107   -0.909988    1.183712
 ---------------------------------------------------------------------
                    Distance matrix (angstroms):
                    1          2          3          4          5
     1  C    0.000000
     2  H    1.080059   0.000000
     3  H    1.086684   1.758949   0.000000
     4  H    1.086684   1.758962   1.768117   0.000000
     5  O    1.398571   2.003349   2.065397   2.065383   0.000000
     6  H    1.942373   2.802821   2.344473   2.345100   0.939638
                    6
     6  H    0.000000
 Stoichiometry    CH4O
 Framework group  C1[X(CH4O)]
 Deg. of freedom    12
 Full point group                 C1      NOp   1
 Largest Abelian subgroup         C1      NOp   1
 Largest concise Abelian subgroup C1      NOp   1
                         Standard orientation:                         
 ---------------------------------------------------------------------
 Center     Atomic      Atomic             Coordinates (Angstroms)
 Number     Number       Type             X           Y           Z
 ---------------------------------------------------------------------
      1          6           0        0.656558   -0.020267    0.000003
      2          1           0        1.076654    0.974744   -0.001018
      3          1           0        1.009449   -0.545283   -0.883573
      4          1           0        1.009602   -0.543555    0.884543
      5          8           0       -0.735003    0.119581    0.000002
      6          1           0       -1.155030   -0.720953    0.000012
 ---------------------------------------------------------------------
 Rotational constants (GHZ):    131.8346533     25.4294079     24.5848385
 Standard basis: 6-311+G(d) (5D, 7F)
 There are    56 symmetry adapted basis functions of A   symmetry.
 Integral buffers will be    262144 words long.
 Raffenetti 1 integral format.
 Two-electron integral symmetry is turned on.
    56 basis functions,    92 primitive gaussians,    58 cartesian basis functions
     9 alpha electrons        9 beta electrons
       nuclear repulsion energy        40.8387624065 Hartrees.
 NAtoms=    6 NActive=    6 NUniq=    6 SFac= 7.50D-01 NAtFMM=   80 NAOKFM=F Big=F
 One-electron integrals computed using PRISM.
 NBasis=    56 RedAO= T  NBF=    56
 NBsUse=    56 1.00D-06 NBFU=    56
 Initial guess read from the read-write file.
 B after Tr=     0.000000    0.000000    0.000000
         Rot=    1.000000    0.000000    0.000000    0.000000 Ang=   0.00 deg.
 Initial guess orbital symmetries:
       Occupied  (A) (A) (A) (A) (A) (A) (A) (A) (A)
       Virtual   (A) (A) (A) (A) (A) (A) (A) (A) (A) (A) (A) (A)
                 (A) (A) (A) (A) (A) (A) (A) (A) (A) (A) (A) (A)
                 (A) (A) (A) (A) (A) (A) (A) (A) (A) (A) (A) (A)
                 (A) (A) (A) (A) (A) (A) (A) (A) (A) (A) (A)
 Requested convergence on RMS density matrix=1.00D-08 within 128 cycles.
 Requested convergence on MAX density matrix=1.00D-06.
 Requested convergence on             energy=1.00D-06.
 No special actions if energy rises.
 Keep R1 ints in memory in canonical form, NReq=2313571.
 SCF Done:  E(RHF) =  -115.068333391     A.U. after    8 cycles
             Convg  =    0.7064D-08             -V/T =  1.9996
 Calling FoFJK, ICntrl=      2127 FMM=F ISym2X=0 I1Cent= 0 IOpClX= 0 NMat=1 NMatS=1 NMatT=0.
 ***** Axes restored to original set *****
 -------------------------------------------------------------------
 Center     Atomic                   Forces (Hartrees/Bohr)
 Number     Number              X              Y              Z
 -------------------------------------------------------------------
      1        6          -0.000026885   -0.000016922   -0.000051517
      2        1          -0.000007529   -0.000017752   -0.000018973
      3        1          -0.000007720   -0.000014363   -0.000023884
      4        1          -0.000010319   -0.000013206   -0.000024113
      5        8           0.000049209    0.000091998    0.000120141
      6        1           0.000003244   -0.000029756   -0.000001655
 -------------------------------------------------------------------
 Cartesian Forces:  Max     0.000120141 RMS     0.000042368

 GradGradGradGradGradGradGradGradGradGradGradGradGradGradGradGradGradGrad
 Berny optimization.
 Using GEDIIS/GDIIS optimizer.
 Internal  Forces:  Max     0.000143650 RMS     0.000041689
 Search for a local minimum.
 Step number   4 out of a maximum of   25
 All quantities printed in internal units (Hartrees-Bohrs-Radians)
 Mixed Optimization -- En-DIIS/RFO-DIIS
 Swaping is turned off.
 Update second derivatives using D2CorX and points    1    2    3    4
 DE= -1.06D-05 DEPred=-1.08D-05 R= 9.81D-01
 SS=  1.41D+00  RLast= 8.32D-03 DXNew= 6.3121D-01 2.4960D-02
 Trust test= 9.81D-01 RLast= 8.32D-03 DXMaxT set to 3.75D-01
 The second derivative matrix:
                          R1        R2        R3        R4        R5
           R1           0.37611
           R2           0.00145   0.37305
           R3           0.00145   0.00075   0.37306
           R4           0.01575   0.01906   0.01907   0.35793
           R5          -0.00633  -0.00712  -0.00714  -0.02327   0.57612
           A1          -0.00051   0.00353   0.00353  -0.01515  -0.00447
           A2          -0.00054   0.00351   0.00351  -0.01524  -0.00440
           A3           0.00559  -0.00387  -0.00387   0.02451   0.00476
           A4           0.00139   0.00012   0.00012  -0.01229   0.00602
           A5          -0.00272  -0.00129  -0.00129   0.00787  -0.00140
           A6          -0.00270  -0.00128  -0.00129   0.00797  -0.00143
           A7           0.00620  -0.00283  -0.00282   0.02995   0.00170
           D1           0.00006   0.00004   0.00004   0.00029  -0.00020
           D2          -0.00141   0.00508   0.00508  -0.00690  -0.01316
           D3           0.00156  -0.00498  -0.00498   0.00751   0.01272
                          A1        A2        A3        A4        A5
           A1           0.15972
           A2          -0.00029   0.15970
           A3          -0.00917  -0.00917   0.18509
           A4          -0.00324  -0.00326   0.01582   0.15308
           A5           0.00618   0.00620  -0.01112  -0.00122   0.16022
           A6           0.00618   0.00620  -0.01110  -0.00119   0.00019
           A7          -0.00655  -0.00657   0.02498   0.01032  -0.01068
           D1           0.00005   0.00005  -0.00005   0.00007  -0.00005
           D2           0.00383   0.00383  -0.02640   0.00060   0.00878
           D3          -0.00374  -0.00374   0.02633  -0.00046  -0.00890
                          A6        A7        D1        D2        D3
           A6           0.16016
           A7          -0.01064   0.18307
           D1          -0.00005   0.00002   0.01295
           D2           0.00875  -0.01806   0.00000   0.02010
           D3          -0.00887   0.01815   0.00000  -0.00715   0.02011
     Eigenvalues ---    0.01295   0.10457   0.10600   0.13793   0.16000
     Eigenvalues ---    0.16027   0.22608   0.34538   0.37230   0.37443
     Eigenvalues ---    0.40049   0.579981000.000001000.000001000.00000
 En-DIIS/RFO-DIIS IScMMF=        0 using points:     4    3
 RFO step:  Lambda=-4.47986897D-08.
 DIIS coeffs:      0.98060      0.01940
 Iteration  1 RMS(Cart)=  0.00018356 RMS(Int)=  0.00000002
 Iteration  2 RMS(Cart)=  0.00000001 RMS(Int)=  0.00000002
 Variable       Old X    -DE/DX   Delta X   Delta X   Delta X     New X
                                  (DIIS)     (GDIIS)  (Total)
    R1        2.04102   0.00001   0.00003  -0.00001   0.00002   2.04104
    R2        2.05353   0.00001   0.00003  -0.00001   0.00001   2.05355
    R3        2.05353   0.00001   0.00003  -0.00001   0.00001   2.05355
    R4        2.64292   0.00014   0.00008   0.00029   0.00037   2.64329
    R5        1.77566  -0.00003  -0.00006   0.00003  -0.00003   1.77562
    A1        1.89443  -0.00003   0.00003  -0.00018  -0.00015   1.89428
    A2        1.89445  -0.00003   0.00003  -0.00018  -0.00015   1.89430
    A3        1.87013   0.00002   0.00000   0.00010   0.00010   1.87023
    A4        1.90042  -0.00003   0.00004  -0.00019  -0.00014   1.90028
    A5        1.95134   0.00003  -0.00005   0.00021   0.00016   1.95150
    A6        1.95132   0.00003  -0.00005   0.00022   0.00017   1.95149
    A7        1.93405  -0.00001   0.00007  -0.00016  -0.00009   1.93397
    D1        3.14061   0.00000  -0.00001   0.00022   0.00021   3.14083
    D2        1.06698   0.00000  -0.00001   0.00025   0.00024   1.06722
    D3       -1.06893   0.00000   0.00000   0.00018   0.00018  -1.06874
         Item               Value     Threshold  Converged?
 Maximum Force            0.000144     0.000450     YES
 RMS     Force            0.000042     0.000300     YES
 Maximum Displacement     0.000283     0.001800     YES
 RMS     Displacement     0.000184     0.001200     YES
 Predicted change in Energy=-4.033025D-08
 Optimization completed.
    -- Stationary point found.
                           ----------------------------
                           !   Optimized Parameters   !
                           ! (Angstroms and Degrees)  !
 --------------------------                            --------------------------
 ! Name  Definition              Value          Derivative Info.                !
 --------------------------------------------------------------------------------
 ! R1    R(1,2)                  1.0801         -DE/DX =    0.0                 !
 ! R2    R(1,3)                  1.0867         -DE/DX =    0.0                 !
 ! R3    R(1,4)                  1.0867         -DE/DX =    0.0                 !
 ! R4    R(1,5)                  1.3986         -DE/DX =    0.0001              !
 ! R5    R(5,6)                  0.9396         -DE/DX =    0.0                 !
 ! A1    A(2,1,3)              108.5428         -DE/DX =    0.0                 !
 ! A2    A(2,1,4)              108.544          -DE/DX =    0.0                 !
 ! A3    A(2,1,5)              107.1508         -DE/DX =    0.0                 !
 ! A4    A(3,1,4)              108.8861         -DE/DX =    0.0                 !
 ! A5    A(3,1,5)              111.8034         -DE/DX =    0.0                 !
 ! A6    A(4,1,5)              111.8023         -DE/DX =    0.0                 !
 ! A7    A(1,5,6)              110.8132         -DE/DX =    0.0                 !
 ! D1    D(2,1,5,6)            179.944          -DE/DX =    0.0                 !
 ! D2    D(3,1,5,6)             61.1336         -DE/DX =    0.0                 !
 ! D3    D(4,1,5,6)            -61.2449         -DE/DX =    0.0                 !
 --------------------------------------------------------------------------------
 GradGradGradGradGradGradGradGradGradGradGradGradGradGradGradGradGradGrad

                          Input orientation:                          
 ---------------------------------------------------------------------
 Center     Atomic      Atomic             Coordinates (Angstroms)
 Number     Number       Type             X           Y           Z
 ---------------------------------------------------------------------
      1          6           0       -1.016199   -2.445254    0.007406
      2          1           0       -0.642552   -3.458299    0.033032
      3          1           0       -0.658479   -1.967851   -0.900892
      4          1           0       -2.102126   -2.477928   -0.016616
      5          8           0       -0.541149   -1.801319    1.154434
      6          1           0       -0.837107   -0.909988    1.183712
 ---------------------------------------------------------------------
                    Distance matrix (angstroms):
                    1          2          3          4          5
     1  C    0.000000
     2  H    1.080059   0.000000
     3  H    1.086684   1.758949   0.000000
     4  H    1.086684   1.758962   1.768117   0.000000
     5  O    1.398571   2.003349   2.065397   2.065383   0.000000
     6  H    1.942373   2.802821   2.344473   2.345100   0.939638
                    6
     6  H    0.000000
 Stoichiometry    CH4O
 Framework group  C1[X(CH4O)]
 Deg. of freedom    12
 Full point group                 C1      NOp   1
 Largest Abelian subgroup         C1      NOp   1
 Largest concise Abelian subgroup C1      NOp   1
                         Standard orientation:                         
 ---------------------------------------------------------------------
 Center     Atomic      Atomic             Coordinates (Angstroms)
 Number     Number       Type             X           Y           Z
 ---------------------------------------------------------------------
      1          6           0        0.656558   -0.020267    0.000003
      2          1           0        1.076654    0.974744   -0.001018
      3          1           0        1.009449   -0.545283   -0.883573
      4          1           0        1.009602   -0.543555    0.884543
      5          8           0       -0.735003    0.119581    0.000002
      6          1           0       -1.155030   -0.720953    0.000012
 ---------------------------------------------------------------------
 Rotational constants (GHZ):    131.8346533     25.4294079     24.5848385

 **********************************************************************

            Population analysis using the SCF density.

 **********************************************************************

 Orbital symmetries:
       Occupied  (A) (A) (A) (A) (A) (A) (A) (A) (A)
       Virtual   (A) (A) (A) (A) (A) (A) (A) (A) (A) (A) (A) (A)
                 (A) (A) (A) (A) (A) (A) (A) (A) (A) (A) (A) (A)
                 (A) (A) (A) (A) (A) (A) (A) (A) (A) (A) (A) (A)
                 (A) (A) (A) (A) (A) (A) (A) (A) (A) (A) (A)
 The electronic state is 1-A.
 Alpha  occ. eigenvalues --  -20.55471 -11.26881  -1.37166  -0.93332  -0.70315
 Alpha  occ. eigenvalues --   -0.62665  -0.60281  -0.50233  -0.45000
 Alpha virt. eigenvalues --    0.07022   0.08922   0.10576   0.10616   0.24136
 Alpha virt. eigenvalues --    0.26193   0.27893   0.28473   0.30202   0.31699
 Alpha virt. eigenvalues --    0.32331   0.36698   0.43504   0.54035   0.56314
 Alpha virt. eigenvalues --    0.71176   0.75289   0.80915   0.81944   0.88016
 Alpha virt. eigenvalues --    1.09318   1.25159   1.29700   1.30570   1.55441
 Alpha virt. eigenvalues --    1.65052   1.79902   1.82727   1.83810   2.05361
 Alpha virt. eigenvalues --    2.48345   2.75445   2.78085   2.78301   3.16045
 Alpha virt. eigenvalues --    3.28549   3.38178   3.43256   3.52659   3.59093
 Alpha virt. eigenvalues --    3.83582   4.30666   5.54199   5.66803   5.98855
 Alpha virt. eigenvalues --   24.64303  51.55508
          Condensed to atoms (all electrons):
              1          2          3          4          5          6
     1  C    5.229840   0.406561   0.403945   0.403950   0.105741  -0.027870
     2  H    0.406561   0.475268  -0.034762  -0.034778  -0.054246   0.008300
     3  H    0.403945  -0.034762   0.527637  -0.044336  -0.046642  -0.005166
     4  H    0.403950  -0.034778  -0.044336   0.527619  -0.046647  -0.005163
     5  O    0.105741  -0.054246  -0.046642  -0.046647   8.286372   0.243086
     6  H   -0.027870   0.008300  -0.005166  -0.005163   0.243086   0.409313
 Mulliken atomic charges:
              1
     1  C   -0.522168
     2  H    0.233656
     3  H    0.199323
     4  H    0.199355
     5  O   -0.487665
     6  H    0.377500
 Sum of Mulliken atomic charges =   0.00000
 Mulliken charges with hydrogens summed into heavy atoms:
              1
     1  C    0.110165
     5  O   -0.110165
 Sum of Mulliken charges with hydrogens summed into heavy atoms =   0.00000
 Electronic spatial extent (au):  <R**2>=             83.1921
 Charge=              0.0000 electrons
 Dipole moment (field-independent basis, Debye):
    X=              0.9620    Y=             -1.7762    Z=             -0.0001  Tot=              2.0200
 Quadrupole moment (field-independent basis, Debye-Ang):
   XX=            -12.9183   YY=            -12.2491   ZZ=            -13.8043
   XY=              2.5666   XZ=             -0.0002   YZ=             -0.0001
 Traceless Quadrupole moment (field-independent basis, Debye-Ang):
   XX=              0.0722   YY=              0.7415   ZZ=             -0.8137
   XY=              2.5666   XZ=             -0.0002   YZ=             -0.0001
 Octapole moment (field-independent basis, Debye-Ang**2):
  XXX=             -4.1427  YYY=             -0.7206  ZZZ=              0.0014  XYY=             -1.5673
  XXY=             -2.7083  XXZ=             -0.0002  XZZ=             -0.2625  YZZ=             -0.8061
  YYZ=             -0.0017  XYZ=             -0.0002
 Hexadecapole moment (field-independent basis, Debye-Ang**3):
 XXXX=            -60.1179 YYYY=            -19.6572 ZZZZ=            -19.6963 XXXY=              4.6027
 XXXZ=             -0.0005 YYYX=              3.2330 YYYZ=             -0.0002 ZZZX=              0.0014
 ZZZY=             -0.0001 XXYY=            -12.4286 XXZZ=            -14.2133 YYZZ=             -6.6622
 XXYZ=             -0.0004 YYXZ=             -0.0019 ZZXY=              0.0596
 N-N= 4.083876240646D+01 E-N=-3.528961192206D+02  KE= 1.151088074352D+02
 1|1|UNPC-PUB-7-042|FOpt|RHF|6-311+G(d)|C1H4O1|CCLAB|10-May-2023|0||# r
 hf/6-311+g(d) opt||Title Card Required||0,1|C,-1.0161990999,-2.4452544
 175,0.0074056992|H,-0.6425520203,-3.458298505,0.0330324375|H,-0.658479
 1897,-1.967851117,-0.9008916257|H,-2.1021256717,-2.477927926,-0.016615
 5045|O,-0.5411486235,-1.8013189879,1.1544344371|H,-0.837107341,-0.9099
 876366,1.1837118129||Version=IA32W-G09RevA.02|State=1-A|HF=-115.068333
 4|RMSD=7.064e-009|RMSF=4.237e-005|Dipole=-0.4580472,0.3465785,-0.54925
 39|Quadrupole=-0.8160725,1.9427448,-1.1266723,-0.4263107,-0.5903683,0.
 7698181|PG=C01 [X(C1H4O1)]||@


 CHILDREN YOU ARE VERY LITTLE,
 AND YOUR BONES ARE VERY BRITTLE;
 IF YOU WOULD GROW GREAT AND STATELY
 YOU MUST TRY TO WALK SEDATELY.
 YOU MUST STILL BE BRIGHT AND QUIET,
 AND CONTENT WITH SIMPLE DIET;
 AND REMAIN, THROUGH ALL BEWILD'RING
 INNOCENT AND HONEST CHILDREN.
     -- A CHILD'S GARDEN OF VERSE,
        ROBERT LOUIS STEVENSON
 Job cpu time:  0 days  0 hours  0 minutes  6.0 seconds.
 File lengths (MBytes):  RWF=      5 Int=      0 D2E=      0 Chk=      1 Scr=      1
 Normal termination of Gaussian 09 at Wed May 10 14:07:32 2023.
