 Entering Link 1 = C:\G09W\l1.exe PID=      2548.
  
 Copyright (c) 1988,1990,1992,1993,1995,1998,2003,2009, Gaussian, Inc.
                  All Rights Reserved.
  
 This is part of the Gaussian(R) 09 program.  It is based on
 the Gaussian(R) 03 system (copyright 2003, Gaussian, Inc.),
 the Gaussian(R) 98 system (copyright 1998, Gaussian, Inc.),
 the Gaussian(R) 94 system (copyright 1995, Gaussian, Inc.),
 the Gaussian 92(TM) system (copyright 1992, Gaussian, Inc.),
 the Gaussian 90(TM) system (copyright 1990, Gaussian, Inc.),
 the Gaussian 88(TM) system (copyright 1988, Gaussian, Inc.),
 the Gaussian 86(TM) system (copyright 1986, Carnegie Mellon
 University), and the Gaussian 82(TM) system (copyright 1983,
 Carnegie Mellon University). Gaussian is a federally registered
 trademark of Gaussian, Inc.
  
 This software contains proprietary and confidential information,
 including trade secrets, belonging to Gaussian, Inc.
  
 This software is provided under written license and may be
 used, copied, transmitted, or stored only in accord with that
 written license.
  
 The following legend is applicable only to US Government
 contracts under FAR:
  
                    RESTRICTED RIGHTS LEGEND
  
 Use, reproduction and disclosure by the US Government is
 subject to restrictions as set forth in subparagraphs (a)
 and (c) of the Commercial Computer Software - Restricted
 Rights clause in FAR 52.227-19.
  
 Gaussian, Inc.
 340 Quinnipiac St., Bldg. 40, Wallingford CT 06492
  
  
 ---------------------------------------------------------------
 Warning -- This program may not be used in any manner that
 competes with the business of Gaussian, Inc. or will provide
 assistance to any competitor of Gaussian, Inc.  The licensee
 of this program is prohibited from giving any competitor of
 Gaussian, Inc. access to this program.  By using this program,
 the user acknowledges that Gaussian, Inc. is engaged in the
 business of creating and licensing software in the field of
 computational chemistry and represents and warrants to the
 licensee that it is not a competitor of Gaussian, Inc. and that
 it will not use this program in any manner prohibited above.
 ---------------------------------------------------------------
  

 Cite this work as:
 Gaussian 09, Revision A.02,
 M. J. Frisch, G. W. Trucks, H. B. Schlegel, G. E. Scuseria, 
 M. A. Robb, J. R. Cheeseman, G. Scalmani, V. Barone, B. Mennucci, 
 G. A. Petersson, H. Nakatsuji, M. Caricato, X. Li, H. P. Hratchian, 
 A. F. Izmaylov, J. Bloino, G. Zheng, J. L. Sonnenberg, M. Hada, 
 M. Ehara, K. Toyota, R. Fukuda, J. Hasegawa, M. Ishida, T. Nakajima, 
 Y. Honda, O. Kitao, H. Nakai, T. Vreven, J. A. Montgomery, Jr., 
 J. E. Peralta, F. Ogliaro, M. Bearpark, J. J. Heyd, E. Brothers, 
 K. N. Kudin, V. N. Staroverov, R. Kobayashi, J. Normand, 
 K. Raghavachari, A. Rendell, J. C. Burant, S. S. Iyengar, J. Tomasi, 
 M. Cossi, N. Rega, J. M. Millam, M. Klene, J. E. Knox, J. B. Cross, 
 V. Bakken, C. Adamo, J. Jaramillo, R. Gomperts, R. E. Stratmann, 
 O. Yazyev, A. J. Austin, R. Cammi, C. Pomelli, J. W. Ochterski, 
 R. L. Martin, K. Morokuma, V. G. Zakrzewski, G. A. Voth, 
 P. Salvador, J. J. Dannenberg, S. Dapprich, A. D. Daniels, 
 O. Farkas, J. B. Foresman, J. V. Ortiz, J. Cioslowski, 
 and D. J. Fox, Gaussian, Inc., Wallingford CT, 2009.
 
 ******************************************
 Gaussian 09:  IA32W-G09RevA.02 11-Jun-2009
                10-May-2023 
 ******************************************
 %chk=D:\homework2\Problem1\1-UHF.chk
 -----------------------------------------------------
 # scan uhf/6-311+g(d) guess=(mix,always) geom=nocrowd
 -----------------------------------------------------
 1/38=1,60=1/1,8;
 2/12=1,17=6,18=5,29=3,40=1/2;
 3/5=4,6=6,7=11,11=2,16=1,25=1,30=1,116=2/1,2,3;
 4/13=-1/1;
 5/5=2,38=5/2;
 6/7=2,8=2,9=2,10=2,18=1,28=1/1;
 1/60=1/8(1);
 99/9=1/99;
 2/12=1,29=3/2;
 3/5=4,6=6,7=11,11=2,16=1,25=1,30=1,116=2/1,2,3;
 4/13=-1/1;
 5/5=2,38=5/2;
 1/60=1/8(-4);
 99/9=1/99;
 -------------------
 Title Card Required
 -------------------
 Symbolic Z-matrix:
 Charge =  0 Multiplicity = 1
 Ar
 Ar                   1    B1
       Variables:
  B1                    0.3    Scan 50    0.1    
 
 Scan the potential surface.
 Variable   Value     No. Steps Step-Size
 -------- ----------- --------- ---------
     1       0.300000      50      0.1000
 A total of     51 points will be computed.
 ---------------------------------------------------------------------------------------------------
                            Z-MATRIX (ANGSTROMS AND DEGREES)
   CD    Cent   Atom    N1       Length/X        N2       Alpha/Y        N3        Beta/Z          J
 ---------------------------------------------------------------------------------------------------
      1      1  Ar
      2      2  Ar       1   0.300000(     1)
 ---------------------------------------------------------------------------------------------------
                         Z-Matrix orientation:                         
 ---------------------------------------------------------------------
 Center     Atomic      Atomic             Coordinates (Angstroms)
 Number     Number       Type             X           Y           Z
 ---------------------------------------------------------------------
      1         18           0        0.000000    0.000000    0.000000
      2         18           0        0.000000    0.000000    0.300000
 ---------------------------------------------------------------------
 Stoichiometry    Ar2
 Framework group  D*H[C*(Ar.Ar)]
 Deg. of freedom     1
 Full point group                 D*H     NOp   8
 Largest Abelian subgroup         D2H     NOp   8
 Largest concise Abelian subgroup C2      NOp   2
                         Standard orientation:                         
 ---------------------------------------------------------------------
 Center     Atomic      Atomic             Coordinates (Angstroms)
 Number     Number       Type             X           Y           Z
 ---------------------------------------------------------------------
      1         18           0        0.000000    0.000000    0.150000
      2         18           0        0.000000    0.000000   -0.150000
 ---------------------------------------------------------------------
 Rotational constants (GHZ):      0.0000000    281.0304012    281.0304012
 Standard basis: 6-311+G(d) (5D, 7F)
 There are    15 symmetry adapted basis functions of AG  symmetry.
 There are     1 symmetry adapted basis functions of B1G symmetry.
 There are     7 symmetry adapted basis functions of B2G symmetry.
 There are     7 symmetry adapted basis functions of B3G symmetry.
 There are     1 symmetry adapted basis functions of AU  symmetry.
 There are    15 symmetry adapted basis functions of B1U symmetry.
 There are     7 symmetry adapted basis functions of B2U symmetry.
 There are     7 symmetry adapted basis functions of B3U symmetry.
 Integral buffers will be    262144 words long.
 Raffenetti 2 integral format.
 Two-electron integral symmetry is turned on.
    60 basis functions,   106 primitive gaussians,    62 cartesian basis functions
    18 alpha electrons       18 beta electrons
       nuclear repulsion energy       571.5113852772 Hartrees.
 NAtoms=    2 NActive=    2 NUniq=    1 SFac= 3.00D+00 NAtFMM=   80 NAOKFM=F Big=F
 One-electron integrals computed using PRISM.
 NBasis=    60 RedAO= T  NBF=    15     1     7     7     1    15     7     7
 NBsUse=    59 1.00D-06 NBFU=    15     1     7     7     1    14     7     7
 Harris functional with IExCor=  205 diagonalized for initial guess.
 ExpMin= 6.00D-02 ExpMax= 1.18D+05 ExpMxC= 4.03D+03 IAcc=2 IRadAn=         0 AccDes= 0.00D+00
 HarFok:  IExCor=  205 AccDes= 0.00D+00 IRadAn=         0 IDoV= 1
 ScaDFX=  1.000000  1.000000  1.000000  1.000000
 FoFCou: FMM=F IPFlag=           0 FMFlag=      100000 FMFlg1=           0
         NFxFlg=           0 DoJE=T BraDBF=F KetDBF=T FulRan=T
         Omega=  0.000000  0.000000  1.000000  0.000000  0.000000 ICntrl=     500 IOpCl=  0
         NMat0=    1 NMatS0=    1 NMatT0=    0 NMatD0=    1 NMtDS0=    0 NMtDT0=    0
         I1Cent=           4 NGrid=           0.
 Petite list used in FoFCou.
 Mixing orbitals, IMix= 1 IMixAn=  0 NRI=1 NE=   18 Coef=  7.07106781D-01  7.07106781D-01
 Mixing orbitals, IMix= 1 IMixAn=  0 NRI=1 NE=   18 Coef= -7.07106781D-01  7.07106781D-01
 Initial guess orbital symmetries:
 Alpha Orbitals:
       Occupied  (SGG) (SGU) (SGG) (PIU) (PIU) (SGG) (SGU) (PIG)
                 (PIG) (SGG) (PIU) (PIU) (SGU) (SGU) (SGG) (DLTG)
                 (DLTG) (PIG)
       Virtual   (PIG) (SGG) (PIU) (PIU) (SGU) (SGG) (PIG) (PIG)
                 (PIU) (PIU) (SGU) (SGG) (SGG) (PIG) (PIG) (SGU)
                 (PIU) (PIU) (PIU) (PIU) (SGG) (DLTU) (DLTU) (SGU)
                 (PIG) (PIG) (SGU) (SGG) (PIG) (PIG) (SGU) (PIU)
                 (PIU) (SGG) (SGG) (SGU) (PIG) (PIG) (SGU) (SGG)
                 (SGU)
 Beta  Orbitals:
       Occupied  (SGG) (SGU) (SGG) (PIU) (PIU) (SGG) (SGU) (PIG)
                 (PIG) (SGG) (PIU) (PIU) (SGU) (SGU) (SGG) (DLTG)
                 (DLTG) (PIG)
       Virtual   (PIG) (SGG) (PIU) (PIU) (SGU) (SGG) (PIG) (PIG)
                 (PIU) (PIU) (SGU) (SGG) (SGG) (PIG) (PIG) (SGU)
                 (PIU) (PIU) (PIU) (PIU) (SGG) (DLTU) (DLTU) (SGU)
                 (PIG) (PIG) (SGU) (SGG) (PIG) (PIG) (SGU) (PIU)
                 (PIU) (SGG) (SGG) (SGU) (PIG) (PIG) (SGU) (SGG)
                 (SGU)
 Initial guess <Sx>= 0.0000 <Sy>= 0.0000 <Sz>= 0.0000 <S**2>= 1.0000 S= 0.6180
 Requested convergence on RMS density matrix=1.00D-08 within 128 cycles.
 Requested convergence on MAX density matrix=1.00D-06.
 Requested convergence on             energy=1.00D-06.
 No special actions if energy rises.
 Keep R1 and R2 ints in memory in canonical form, NReq=4666730.
 An orbital has undefined symmetry, so N**3 symmetry is turned off.
 Density matrix breaks symmetry, PCut= 1.00D-04
 Density matrix has no symmetry -- integrals replicated.
 Density matrix breaks symmetry, PCut= 1.00D-07
 Density matrix has no symmetry -- integrals replicated.
 Density matrix breaks symmetry, PCut= 1.00D-07
 Density matrix has no symmetry -- integrals replicated.
 Density matrix breaks symmetry, PCut= 1.00D-07
 Density matrix has no symmetry -- integrals replicated.
 Density matrix breaks symmetry, PCut= 1.00D-07
 Density matrix has no symmetry -- integrals replicated.
 Density matrix breaks symmetry, PCut= 1.00D-07
 Density matrix has no symmetry -- integrals replicated.
 Density matrix breaks symmetry, PCut= 1.00D-07
 Density matrix has no symmetry -- integrals replicated.
 Density matrix breaks symmetry, PCut= 1.00D-07
 Density matrix has no symmetry -- integrals replicated.
 Density matrix breaks symmetry, PCut= 1.00D-07
 Density matrix has no symmetry -- integrals replicated.
 Density matrix breaks symmetry, PCut= 1.00D-07
 Density matrix has no symmetry -- integrals replicated.
 Density matrix breaks symmetry, PCut= 1.00D-07
 Density matrix has no symmetry -- integrals replicated.
 Density matrix breaks symmetry, PCut= 1.00D-07
 Density matrix has no symmetry -- integrals replicated.
 Density matrix breaks symmetry, PCut= 1.00D-07
 Density matrix has no symmetry -- integrals replicated.
 Density matrix breaks symmetry, PCut= 1.00D-07
 Density matrix has no symmetry -- integrals replicated.
 Rare condition: small coef for last iteration:  0.000D+00
 Density matrix breaks symmetry, PCut= 1.00D-07
 Density matrix has no symmetry -- integrals replicated.
 Density matrix breaks symmetry, PCut= 1.00D-07
 Density matrix has no symmetry -- integrals replicated.
 Density matrix breaks symmetry, PCut= 1.00D-07
 Density matrix has no symmetry -- integrals replicated.
 Density matrix breaks symmetry, PCut= 1.00D-07
 Density matrix has no symmetry -- integrals replicated.
 Density matrix breaks symmetry, PCut= 1.00D-07
 Density matrix has no symmetry -- integrals replicated.
 Density matrix breaks symmetry, PCut= 1.00D-07
 Density matrix has no symmetry -- integrals replicated.
 Density matrix breaks symmetry, PCut= 1.00D-07
 Density matrix has no symmetry -- integrals replicated.
 Density matrix breaks symmetry, PCut= 1.00D-07
 Density matrix has no symmetry -- integrals replicated.
 Density matrix breaks symmetry, PCut= 1.00D-07
 Density matrix has no symmetry -- integrals replicated.
 Density matrix breaks symmetry, PCut= 1.00D-07
 Density matrix has no symmetry -- integrals replicated.
 Density matrix breaks symmetry, PCut= 1.00D-07
 Density matrix has no symmetry -- integrals replicated.
 Density matrix breaks symmetry, PCut= 1.00D-07
 Density matrix has no symmetry -- integrals replicated.
 Density matrix breaks symmetry, PCut= 1.00D-07
 Density matrix has no symmetry -- integrals replicated.
 Density matrix breaks symmetry, PCut= 1.00D-07
 Density matrix has no symmetry -- integrals replicated.
 Density matrix breaks symmetry, PCut= 1.00D-07
 Density matrix has no symmetry -- integrals replicated.
 Density matrix breaks symmetry, PCut= 1.00D-07
 Density matrix has no symmetry -- integrals replicated.
 Density matrix breaks symmetry, PCut= 1.00D-07
 Density matrix has no symmetry -- integrals replicated.
 Density matrix breaks symmetry, PCut= 1.00D-07
 Density matrix has no symmetry -- integrals replicated.
 Density matrix breaks symmetry, PCut= 1.00D-07
 Density matrix has no symmetry -- integrals replicated.
 Density matrix breaks symmetry, PCut= 1.00D-07
 Density matrix has no symmetry -- integrals replicated.
 Density matrix breaks symmetry, PCut= 1.00D-07
 Density matrix has no symmetry -- integrals replicated.
 Density matrix breaks symmetry, PCut= 1.00D-07
 Density matrix has no symmetry -- integrals replicated.
 SCF Done:  E(UHF) =  -934.466389008     A.U. after   35 cycles
             Convg  =    0.1536D-08             -V/T =  1.7811
 <Sx>= 0.0000 <Sy>= 0.0000 <Sz>= 0.0000 <S**2>= 1.4485 S= 0.8033
 <L.S>= 0.000000000000E+00
 Annihilation of the first spin contaminant:
 S**2 before annihilation     1.4485,   after     2.5000

 **********************************************************************

            Population analysis using the SCF density.

 **********************************************************************

 Orbital symmetries:
 Alpha Orbitals:
       Occupied  (SGG) (SGU) (SGG) (PIU) (PIU) (SGG) (SGU) (PIG)
                 (PIG) (SGG) (PIU) (PIU) (SGU) (SGU) (?A) (?A)
                 (?B) (?A)
       Virtual   (PIU) (?A) (PIU) (SGU) (?B) (?B) (?A) (?B) (PIU)
                 (SGU) (PIU) (SGG) (?B) (?B) (?A) (SGU) (?C) (?C)
                 (SGG) (?C) (?D) (?D) (?C) (PIG) (?D) (PIG) (SGU)
                 (SGG) (PIG) (PIG) (SGU) (PIU) (PIU) (SGG) (SGG)
                 (SGU) (PIG) (PIG) (SGU) (SGG) (SGU)
 Beta  Orbitals:
       Occupied  (SGG) (SGU) (SGG) (PIU) (PIU) (SGG) (SGU) (PIG)
                 (PIG) (SGG) (PIU) (PIU) (SGU) (SGU) (?A) (?A)
                 (?B) (?A)
       Virtual   (PIU) (?A) (PIU) (SGU) (?B) (?B) (?A) (?B) (PIU)
                 (SGU) (PIU) (SGG) (?B) (?B) (?A) (SGU) (?C) (?C)
                 (SGG) (?C) (?D) (?D) (?C) (PIG) (?D) (PIG) (SGU)
                 (SGG) (PIG) (PIG) (SGU) (PIU) (PIU) (SGG) (SGG)
                 (SGU) (PIG) (PIG) (SGU) (SGG) (SGU)
 Unable to determine electronic state:  an orbital has unidentified symmetry.
 Alpha  occ. eigenvalues -- -124.54467-124.32761 -26.02994 -17.56990 -17.56237
 Alpha  occ. eigenvalues --  -14.19114 -13.71934 -11.42072 -11.40479  -2.70979
 Alpha  occ. eigenvalues --   -2.08557  -2.02120  -1.14963  -1.02049  -0.90919
 Alpha  occ. eigenvalues --   -0.19837  -0.17440  -0.15695
 Alpha virt. eigenvalues --    0.10016   0.10461   0.10780   0.11684   0.16364
 Alpha virt. eigenvalues --    0.20673   0.20683   0.32086   0.46865   0.47018
 Alpha virt. eigenvalues --    0.48027   0.56680   0.73283   0.79454   0.91771
 Alpha virt. eigenvalues --    1.22223   1.75738   1.79997   1.90025   2.10063
 Alpha virt. eigenvalues --    2.14332   2.14433   2.14890   2.26200   2.29728
 Alpha virt. eigenvalues --    2.30510   2.86517   3.46698   4.78380   4.81506
 Alpha virt. eigenvalues --    5.66230  10.43100  10.44032  11.09663  12.66972
 Alpha virt. eigenvalues --   15.68263  23.98921  24.00462  30.83657 248.60344
 Alpha virt. eigenvalues --  254.38383
  Beta  occ. eigenvalues -- -124.54467-124.32761 -26.02994 -17.56990 -17.56237
  Beta  occ. eigenvalues --  -14.19114 -13.71934 -11.42072 -11.40479  -2.70979
  Beta  occ. eigenvalues --   -2.08557  -2.02120  -1.14963  -1.02049  -0.90919
  Beta  occ. eigenvalues --   -0.19837  -0.17440  -0.15695
  Beta virt. eigenvalues --    0.10016   0.10461   0.10780   0.11684   0.16364
  Beta virt. eigenvalues --    0.20673   0.20683   0.32086   0.46865   0.47018
  Beta virt. eigenvalues --    0.48027   0.56680   0.73283   0.79454   0.91771
  Beta virt. eigenvalues --    1.22223   1.75738   1.79997   1.90025   2.10063
  Beta virt. eigenvalues --    2.14332   2.14433   2.14890   2.26200   2.29728
  Beta virt. eigenvalues --    2.30510   2.86517   3.46698   4.78380   4.81506
  Beta virt. eigenvalues --    5.66230  10.43100  10.44032  11.09663  12.66972
  Beta virt. eigenvalues --   15.68263  23.98921  24.00462  30.83657 248.60344
  Beta virt. eigenvalues --  254.38383
          Condensed to atoms (all electrons):
              1          2
     1  Ar 420.437349-402.437349
     2  Ar-402.437349 420.437349
 Mulliken atomic charges:
              1
     1  Ar   0.000000
     2  Ar   0.000000
 Sum of Mulliken atomic charges =   0.00000
 Mulliken charges with hydrogens summed into heavy atoms:
              1
     1  Ar   0.000000
     2  Ar   0.000000
 Sum of Mulliken charges with hydrogens summed into heavy atoms =   0.00000
          Atomic-Atomic Spin Densities.
              1          2
     1  Ar   0.000000   0.000000
     2  Ar   0.000000   0.000000
 Mulliken atomic spin densities:
              1
     1  Ar   0.000000
     2  Ar   0.000000
 Sum of Mulliken atomic spin densities =   0.00000
 Electronic spatial extent (au):  <R**2>=             48.9065
 Charge=              0.0000 electrons
 Dipole moment (field-independent basis, Debye):
    X=              0.0000    Y=              0.0000    Z=              0.0000  Tot=              0.0000
 Quadrupole moment (field-independent basis, Debye-Ang):
   XX=            -19.7001   YY=            -19.7001   ZZ=            -22.4900
   XY=              0.0000   XZ=              0.0000   YZ=              0.0000
 Traceless Quadrupole moment (field-independent basis, Debye-Ang):
   XX=              0.9299   YY=              0.9299   ZZ=             -1.8599
   XY=              0.0000   XZ=              0.0000   YZ=              0.0000
 Octapole moment (field-independent basis, Debye-Ang**2):
  XXX=              0.0000  YYY=              0.0000  ZZZ=              0.0000  XYY=              0.0000
  XXY=              0.0000  XXZ=              0.0000  XZZ=              0.0000  YZZ=              0.0000
  YYZ=              0.0000  XYZ=              0.0000
 Hexadecapole moment (field-independent basis, Debye-Ang**3):
 XXXX=            -25.0239 YYYY=            -25.0239 ZZZZ=            -38.5211 XXXY=              0.0000
 XXXZ=              0.0000 YYYX=              0.0000 YYYZ=              0.0000 ZZZX=              0.0000
 ZZZY=              0.0000 XXYY=             -8.3082 XXZZ=            -12.6297 YYZZ=            -12.6297
 XXYZ=              0.0000 YYXZ=              0.0000 ZZXY=              0.0000
 N-N= 5.715113852772D+02 E-N=-5.198963678256D+03  KE= 1.794618547838D+03
 Symmetry AG   KE= 6.807942967568D+02
 Symmetry B1G  KE= 7.645424032619D+00
 Symmetry B2G  KE= 1.019750058449D+02
 Symmetry B3G  KE= 1.019750058449D+02
 Symmetry AU   KE= 7.513665202950D-03
 Symmetry B1U  KE= 7.254095469040D+02
 Symmetry B2U  KE= 8.840587739470D+01
 Symmetry B3U  KE= 8.840587739470D+01
                          Isotropic Fermi Contact Couplings
        Atom                 a.u.       MegaHertz       Gauss      10(-4) cm-1
 --------------------------------------------------------
       Center         ----  Spin Dipole Couplings  ----
                      3XX-RR        3YY-RR        3ZZ-RR
 --------------------------------------------------------
     1   Atom        0.000000      0.000000      0.000000
     2   Atom        0.000000      0.000000      0.000000
 --------------------------------------------------------
                        XY            XZ            YZ
 --------------------------------------------------------
     1   Atom        3.148143      0.000000      0.000000
     2   Atom        3.148143      0.000000      0.000000
 --------------------------------------------------------


 ---------------------------------------------------------------------------------
              Anisotropic Spin Dipole Couplings in Principal Axis System
 ---------------------------------------------------------------------------------

       Atom             a.u.   MegaHertz   Gauss  10(-4) cm-1        Axes


 ---------------------------------------------------------------------------------

 Variable Step   Value    
 -------- ---- -----------
     1       1    0.755890
 ---------------------------------------------------------------------------------------------------
                            Z-MATRIX (ANGSTROMS AND DEGREES)
   CD    Cent   Atom    N1       Length/X        N2       Alpha/Y        N3        Beta/Z          J
 ---------------------------------------------------------------------------------------------------
      1      1  Ar
      2      2  Ar       1   0.400000(     1)
 ---------------------------------------------------------------------------------------------------
                         Z-Matrix orientation:                         
 ---------------------------------------------------------------------
 Center     Atomic      Atomic             Coordinates (Angstroms)
 Number     Number       Type             X           Y           Z
 ---------------------------------------------------------------------
      1         18           0        0.000000    0.000000    0.000000
      2         18           0        0.000000    0.000000    0.400000
 ---------------------------------------------------------------------
 Stoichiometry    Ar2
 Framework group  D*H[C*(Ar.Ar)]
 Deg. of freedom     1
 Full point group                 D*H     NOp   8
 Largest Abelian subgroup         D2H     NOp   8
 Largest concise Abelian subgroup C2      NOp   2
                         Standard orientation:                         
 ---------------------------------------------------------------------
 Center     Atomic      Atomic             Coordinates (Angstroms)
 Number     Number       Type             X           Y           Z
 ---------------------------------------------------------------------
      1         18           0        0.000000    0.000000    0.200000
      2         18           0        0.000000    0.000000   -0.200000
 ---------------------------------------------------------------------
 Rotational constants (GHZ):      0.0000000    158.0796007    158.0796007
 Standard basis: 6-311+G(d) (5D, 7F)
 There are    15 symmetry adapted basis functions of AG  symmetry.
 There are     1 symmetry adapted basis functions of B1G symmetry.
 There are     7 symmetry adapted basis functions of B2G symmetry.
 There are     7 symmetry adapted basis functions of B3G symmetry.
 There are     1 symmetry adapted basis functions of AU  symmetry.
 There are    15 symmetry adapted basis functions of B1U symmetry.
 There are     7 symmetry adapted basis functions of B2U symmetry.
 There are     7 symmetry adapted basis functions of B3U symmetry.
 Integral buffers will be    262144 words long.
 Raffenetti 2 integral format.
 Two-electron integral symmetry is turned on.
    60 basis functions,   106 primitive gaussians,    62 cartesian basis functions
    18 alpha electrons       18 beta electrons
       nuclear repulsion energy       428.6335389579 Hartrees.
 NAtoms=    2 NActive=    2 NUniq=    1 SFac= 3.00D+00 NAtFMM=   80 NAOKFM=F Big=F
 One-electron integrals computed using PRISM.
 NBasis=    60 RedAO= T  NBF=    15     1     7     7     1    15     7     7
 NBsUse=    59 1.00D-06 NBFU=    15     1     7     7     1    14     7     7
 Harris functional with IExCor=  205 diagonalized for initial guess.
 ExpMin= 6.00D-02 ExpMax= 1.18D+05 ExpMxC= 4.03D+03 IAcc=2 IRadAn=         0 AccDes= 0.00D+00
 HarFok:  IExCor=  205 AccDes= 0.00D+00 IRadAn=         0 IDoV= 1
 ScaDFX=  1.000000  1.000000  1.000000  1.000000
 FoFCou: FMM=F IPFlag=           0 FMFlag=      100000 FMFlg1=           0
         NFxFlg=           0 DoJE=T BraDBF=F KetDBF=T FulRan=T
         Omega=  0.000000  0.000000  1.000000  0.000000  0.000000 ICntrl=     500 IOpCl=  0
         NMat0=    1 NMatS0=    1 NMatT0=    0 NMatD0=    1 NMtDS0=    0 NMtDT0=    0
         I1Cent=           4 NGrid=           0.
 Petite list used in FoFCou.
 Mixing orbitals, IMix= 1 IMixAn=  0 NRI=1 NE=   18 Coef=  7.07106781D-01  7.07106781D-01
 Mixing orbitals, IMix= 1 IMixAn=  0 NRI=1 NE=   18 Coef= -7.07106781D-01  7.07106781D-01
 Initial guess orbital symmetries:
 Alpha Orbitals:
       Occupied  (SGG) (SGU) (SGG) (PIU) (PIU) (SGU) (SGG) (PIG)
                 (PIG) (SGU) (SGG) (PIU) (PIU) (SGU) (SGG) (DLTG)
                 (DLTG) (PIG)
       Virtual   (PIG) (SGG) (PIU) (PIU) (SGU) (SGG) (PIG) (PIG)
                 (PIU) (PIU) (SGU) (SGG) (PIG) (PIG) (SGG) (SGU)
                 (PIU) (PIU) (SGU) (DLTU) (DLTU) (PIU) (PIU) (SGG)
                 (PIG) (PIG) (SGU) (SGG) (PIG) (PIG) (SGU) (SGG)
                 (PIU) (PIU) (SGG) (SGU) (PIG) (PIG) (SGU) (SGG)
                 (SGU)
 Beta  Orbitals:
       Occupied  (SGG) (SGU) (SGG) (PIU) (PIU) (SGU) (SGG) (PIG)
                 (PIG) (SGU) (SGG) (PIU) (PIU) (SGU) (SGG) (DLTG)
                 (DLTG) (PIG)
       Virtual   (PIG) (SGG) (PIU) (PIU) (SGU) (SGG) (PIG) (PIG)
                 (PIU) (PIU) (SGU) (SGG) (PIG) (PIG) (SGG) (SGU)
                 (PIU) (PIU) (SGU) (DLTU) (DLTU) (PIU) (PIU) (SGG)
                 (PIG) (PIG) (SGU) (SGG) (PIG) (PIG) (SGU) (SGG)
                 (PIU) (PIU) (SGG) (SGU) (PIG) (PIG) (SGU) (SGG)
                 (SGU)
 Initial guess <Sx>= 0.0000 <Sy>= 0.0000 <Sz>= 0.0000 <S**2>= 1.0000 S= 0.6180
 Requested convergence on RMS density matrix=1.00D-08 within 128 cycles.
 Requested convergence on MAX density matrix=1.00D-06.
 Requested convergence on             energy=1.00D-06.
 No special actions if energy rises.
 Keep R1 and R2 ints in memory in canonical form, NReq=4666730.
 An orbital has undefined symmetry, so N**3 symmetry is turned off.
 Density matrix breaks symmetry, PCut= 1.00D-04
 Density matrix has no symmetry -- integrals replicated.
 Density matrix breaks symmetry, PCut= 1.00D-07
 Density matrix has no symmetry -- integrals replicated.
 Density matrix breaks symmetry, PCut= 1.00D-07
 Density matrix has no symmetry -- integrals replicated.
 Density matrix breaks symmetry, PCut= 1.00D-07
 Density matrix has no symmetry -- integrals replicated.
 Density matrix breaks symmetry, PCut= 1.00D-07
 Density matrix has no symmetry -- integrals replicated.
 Density matrix breaks symmetry, PCut= 1.00D-07
 Density matrix has no symmetry -- integrals replicated.
 Density matrix breaks symmetry, PCut= 1.00D-07
 Density matrix has no symmetry -- integrals replicated.
 Density matrix breaks symmetry, PCut= 1.00D-07
 Density matrix has no symmetry -- integrals replicated.
 Density matrix breaks symmetry, PCut= 1.00D-07
 Density matrix has no symmetry -- integrals replicated.
 Density matrix breaks symmetry, PCut= 1.00D-07
 Density matrix has no symmetry -- integrals replicated.
 Density matrix breaks symmetry, PCut= 1.00D-07
 Density matrix has no symmetry -- integrals replicated.
 Density matrix breaks symmetry, PCut= 1.00D-07
 Density matrix has no symmetry -- integrals replicated.
 Density matrix breaks symmetry, PCut= 1.00D-07
 Density matrix has no symmetry -- integrals replicated.
 Rare condition: small coef for last iteration:  0.000D+00
 Density matrix breaks symmetry, PCut= 1.00D-07
 Density matrix has no symmetry -- integrals replicated.
 Density matrix breaks symmetry, PCut= 1.00D-07
 Density matrix has no symmetry -- integrals replicated.
 Density matrix breaks symmetry, PCut= 1.00D-07
 Density matrix has no symmetry -- integrals replicated.
 Rare condition: small coef for last iteration:  0.000D+00
 Density matrix breaks symmetry, PCut= 1.00D-07
 Density matrix has no symmetry -- integrals replicated.
 Density matrix breaks symmetry, PCut= 1.00D-07
 Density matrix has no symmetry -- integrals replicated.
 Rare condition: small coef for last iteration:  0.000D+00
 Density matrix breaks symmetry, PCut= 1.00D-07
 Density matrix has no symmetry -- integrals replicated.
 Density matrix breaks symmetry, PCut= 1.00D-07
 Density matrix has no symmetry -- integrals replicated.
 Rare condition: small coef for last iteration:  0.000D+00
 Density matrix breaks symmetry, PCut= 1.00D-07
 Density matrix has no symmetry -- integrals replicated.
 Rare condition: small coef for last iteration:  0.000D+00
 Density matrix breaks symmetry, PCut= 1.00D-07
 Density matrix has no symmetry -- integrals replicated.
 Density matrix breaks symmetry, PCut= 1.00D-07
 Density matrix has no symmetry -- integrals replicated.
 Density matrix breaks symmetry, PCut= 1.00D-07
 Density matrix has no symmetry -- integrals replicated.
 Density matrix breaks symmetry, PCut= 1.00D-07
 Density matrix has no symmetry -- integrals replicated.
 Rare condition: small coef for last iteration:  0.000D+00
 Density matrix breaks symmetry, PCut= 1.00D-07
 Density matrix has no symmetry -- integrals replicated.
 Density matrix breaks symmetry, PCut= 1.00D-07
 Density matrix has no symmetry -- integrals replicated.
 Density matrix breaks symmetry, PCut= 1.00D-07
 Density matrix has no symmetry -- integrals replicated.
 Density matrix breaks symmetry, PCut= 1.00D-07
 Density matrix has no symmetry -- integrals replicated.
 Density matrix breaks symmetry, PCut= 1.00D-07
 Density matrix has no symmetry -- integrals replicated.
 Density matrix breaks symmetry, PCut= 1.00D-07
 Density matrix has no symmetry -- integrals replicated.
 Density matrix breaks symmetry, PCut= 1.00D-07
 Density matrix has no symmetry -- integrals replicated.
 Density matrix breaks symmetry, PCut= 1.00D-07
 Density matrix has no symmetry -- integrals replicated.
 Density matrix breaks symmetry, PCut= 1.00D-07
 Density matrix has no symmetry -- integrals replicated.
 Density matrix breaks symmetry, PCut= 1.00D-07
 Density matrix has no symmetry -- integrals replicated.
 SCF Done:  E(UHF) =  -995.170968986     A.U. after   34 cycles
             Convg  =    0.4255D-08             -V/T =  1.8740
 <Sx>= 0.0000 <Sy>= 0.0000 <Sz>= 0.0000 <S**2>= 1.3719 S= 0.7735
 <L.S>= 0.000000000000E+00
 Annihilation of the first spin contaminant:
 S**2 before annihilation     1.3719,   after     2.1975
 Variable Step   Value    
 -------- ---- -----------
     1       2    0.944863
 ---------------------------------------------------------------------------------------------------
                            Z-MATRIX (ANGSTROMS AND DEGREES)
   CD    Cent   Atom    N1       Length/X        N2       Alpha/Y        N3        Beta/Z          J
 ---------------------------------------------------------------------------------------------------
      1      1  Ar
      2      2  Ar       1   0.500000(     1)
 ---------------------------------------------------------------------------------------------------
                         Z-Matrix orientation:                         
 ---------------------------------------------------------------------
 Center     Atomic      Atomic             Coordinates (Angstroms)
 Number     Number       Type             X           Y           Z
 ---------------------------------------------------------------------
      1         18           0        0.000000    0.000000    0.000000
      2         18           0        0.000000    0.000000    0.500000
 ---------------------------------------------------------------------
 Stoichiometry    Ar2
 Framework group  D*H[C*(Ar.Ar)]
 Deg. of freedom     1
 Full point group                 D*H     NOp   8
 Largest Abelian subgroup         D2H     NOp   8
 Largest concise Abelian subgroup C2      NOp   2
                         Standard orientation:                         
 ---------------------------------------------------------------------
 Center     Atomic      Atomic             Coordinates (Angstroms)
 Number     Number       Type             X           Y           Z
 ---------------------------------------------------------------------
      1         18           0        0.000000    0.000000    0.250000
      2         18           0        0.000000    0.000000   -0.250000
 ---------------------------------------------------------------------
 Rotational constants (GHZ):      0.0000000    101.1709444    101.1709444
 Standard basis: 6-311+G(d) (5D, 7F)
 There are    15 symmetry adapted basis functions of AG  symmetry.
 There are     1 symmetry adapted basis functions of B1G symmetry.
 There are     7 symmetry adapted basis functions of B2G symmetry.
 There are     7 symmetry adapted basis functions of B3G symmetry.
 There are     1 symmetry adapted basis functions of AU  symmetry.
 There are    15 symmetry adapted basis functions of B1U symmetry.
 There are     7 symmetry adapted basis functions of B2U symmetry.
 There are     7 symmetry adapted basis functions of B3U symmetry.
 Integral buffers will be    262144 words long.
 Raffenetti 2 integral format.
 Two-electron integral symmetry is turned on.
    60 basis functions,   106 primitive gaussians,    62 cartesian basis functions
    18 alpha electrons       18 beta electrons
       nuclear repulsion energy       342.9068311663 Hartrees.
 NAtoms=    2 NActive=    2 NUniq=    1 SFac= 3.00D+00 NAtFMM=   80 NAOKFM=F Big=F
 One-electron integrals computed using PRISM.
 NBasis=    60 RedAO= T  NBF=    15     1     7     7     1    15     7     7
 NBsUse=    60 1.00D-06 NBFU=    15     1     7     7     1    15     7     7
 Harris functional with IExCor=  205 diagonalized for initial guess.
 ExpMin= 6.00D-02 ExpMax= 1.18D+05 ExpMxC= 4.03D+03 IAcc=2 IRadAn=         0 AccDes= 0.00D+00
 HarFok:  IExCor=  205 AccDes= 0.00D+00 IRadAn=         0 IDoV= 1
 ScaDFX=  1.000000  1.000000  1.000000  1.000000
 FoFCou: FMM=F IPFlag=           0 FMFlag=      100000 FMFlg1=           0
         NFxFlg=           0 DoJE=T BraDBF=F KetDBF=T FulRan=T
         Omega=  0.000000  0.000000  1.000000  0.000000  0.000000 ICntrl=     500 IOpCl=  0
         NMat0=    1 NMatS0=    1 NMatT0=    0 NMatD0=    1 NMtDS0=    0 NMtDT0=    0
         I1Cent=           4 NGrid=           0.
 Petite list used in FoFCou.
 Mixing orbitals, IMix= 1 IMixAn=  0 NRI=1 NE=   18 Coef=  7.07106781D-01  7.07106781D-01
 Mixing orbitals, IMix= 1 IMixAn=  0 NRI=1 NE=   18 Coef= -7.07106781D-01  7.07106781D-01
 Initial guess orbital symmetries:
 Alpha Orbitals:
       Occupied  (SGG) (SGU) (SGG) (SGU) (PIU) (PIU) (SGG) (PIG)
                 (PIG) (SGU) (SGG) (PIU) (PIU) (SGU) (SGG) (PIG)
                 (PIG) (DLTG)
       Virtual   (DLTG) (SGG) (PIU) (PIU) (SGU) (SGG) (PIG) (PIG)
                 (SGU) (PIU) (PIU) (SGU) (SGG) (PIG) (PIG) (SGG)
                 (SGU) (PIU) (PIU) (SGU) (DLTU) (DLTU) (PIU) (PIU)
                 (SGG) (PIG) (PIG) (SGU) (SGG) (PIG) (PIG) (SGU)
                 (SGG) (SGU) (PIU) (PIU) (SGG) (PIG) (PIG) (SGU)
                 (SGG) (SGU)
 Beta  Orbitals:
       Occupied  (SGG) (SGU) (SGG) (SGU) (PIU) (PIU) (SGG) (PIG)
                 (PIG) (SGU) (SGG) (PIU) (PIU) (SGU) (SGG) (PIG)
                 (PIG) (DLTG)
       Virtual   (DLTG) (SGG) (PIU) (PIU) (SGU) (SGG) (PIG) (PIG)
                 (SGU) (PIU) (PIU) (SGU) (SGG) (PIG) (PIG) (SGG)
                 (SGU) (PIU) (PIU) (SGU) (DLTU) (DLTU) (PIU) (PIU)
                 (SGG) (PIG) (PIG) (SGU) (SGG) (PIG) (PIG) (SGU)
                 (SGG) (SGU) (PIU) (PIU) (SGG) (PIG) (PIG) (SGU)
                 (SGG) (SGU)
 Initial guess <Sx>= 0.0000 <Sy>= 0.0000 <Sz>= 0.0000 <S**2>= 1.0000 S= 0.6180
 Requested convergence on RMS density matrix=1.00D-08 within 128 cycles.
 Requested convergence on MAX density matrix=1.00D-06.
 Requested convergence on             energy=1.00D-06.
 No special actions if energy rises.
 Keep R1 and R2 ints in memory in canonical form, NReq=4666730.
 An orbital has undefined symmetry, so N**3 symmetry is turned off.
 Density matrix breaks symmetry, PCut= 1.00D-04
 Density matrix has no symmetry -- integrals replicated.
 Density matrix breaks symmetry, PCut= 1.00D-07
 Density matrix has no symmetry -- integrals replicated.
 Density matrix breaks symmetry, PCut= 1.00D-07
 Density matrix has no symmetry -- integrals replicated.
 Density matrix breaks symmetry, PCut= 1.00D-07
 Density matrix has no symmetry -- integrals replicated.
 Density matrix breaks symmetry, PCut= 1.00D-07
 Density matrix has no symmetry -- integrals replicated.
 Density matrix breaks symmetry, PCut= 1.00D-07
 Density matrix has no symmetry -- integrals replicated.
 Density matrix breaks symmetry, PCut= 1.00D-07
 Density matrix has no symmetry -- integrals replicated.
 Density matrix breaks symmetry, PCut= 1.00D-07
 Density matrix has no symmetry -- integrals replicated.
 Density matrix breaks symmetry, PCut= 1.00D-07
 Density matrix has no symmetry -- integrals replicated.
 Density matrix breaks symmetry, PCut= 1.00D-07
 Density matrix has no symmetry -- integrals replicated.
 Density matrix breaks symmetry, PCut= 1.00D-07
 Density matrix has no symmetry -- integrals replicated.
 SCF Done:  E(UHF) =  -1020.48248597     A.U. after   10 cycles
             Convg  =    0.8594D-08             -V/T =  1.9249
 <Sx>= 0.0000 <Sy>= 0.0000 <Sz>= 0.0000 <S**2>= 1.0000 S= 0.6180
 <L.S>= 0.000000000000E+00
 Annihilation of the first spin contaminant:
 S**2 before annihilation     1.0000,   after     0.0000
 Variable Step   Value    
 -------- ---- -----------
     1       3    1.133836
 ---------------------------------------------------------------------------------------------------
                            Z-MATRIX (ANGSTROMS AND DEGREES)
   CD    Cent   Atom    N1       Length/X        N2       Alpha/Y        N3        Beta/Z          J
 ---------------------------------------------------------------------------------------------------
      1      1  Ar
      2      2  Ar       1   0.600000(     1)
 ---------------------------------------------------------------------------------------------------
                         Z-Matrix orientation:                         
 ---------------------------------------------------------------------
 Center     Atomic      Atomic             Coordinates (Angstroms)
 Number     Number       Type             X           Y           Z
 ---------------------------------------------------------------------
      1         18           0        0.000000    0.000000    0.000000
      2         18           0        0.000000    0.000000    0.600000
 ---------------------------------------------------------------------
 Stoichiometry    Ar2
 Framework group  D*H[C*(Ar.Ar)]
 Deg. of freedom     1
 Full point group                 D*H     NOp   8
 Largest Abelian subgroup         D2H     NOp   8
 Largest concise Abelian subgroup C2      NOp   2
                         Standard orientation:                         
 ---------------------------------------------------------------------
 Center     Atomic      Atomic             Coordinates (Angstroms)
 Number     Number       Type             X           Y           Z
 ---------------------------------------------------------------------
      1         18           0        0.000000    0.000000    0.300000
      2         18           0        0.000000    0.000000   -0.300000
 ---------------------------------------------------------------------
 Rotational constants (GHZ):      0.0000000     70.2576003     70.2576003
 Standard basis: 6-311+G(d) (5D, 7F)
 There are    15 symmetry adapted basis functions of AG  symmetry.
 There are     1 symmetry adapted basis functions of B1G symmetry.
 There are     7 symmetry adapted basis functions of B2G symmetry.
 There are     7 symmetry adapted basis functions of B3G symmetry.
 There are     1 symmetry adapted basis functions of AU  symmetry.
 There are    15 symmetry adapted basis functions of B1U symmetry.
 There are     7 symmetry adapted basis functions of B2U symmetry.
 There are     7 symmetry adapted basis functions of B3U symmetry.
 Integral buffers will be    262144 words long.
 Raffenetti 2 integral format.
 Two-electron integral symmetry is turned on.
    60 basis functions,   106 primitive gaussians,    62 cartesian basis functions
    18 alpha electrons       18 beta electrons
       nuclear repulsion energy       285.7556926386 Hartrees.
 NAtoms=    2 NActive=    2 NUniq=    1 SFac= 3.00D+00 NAtFMM=   80 NAOKFM=F Big=F
 One-electron integrals computed using PRISM.
 NBasis=    60 RedAO= T  NBF=    15     1     7     7     1    15     7     7
 NBsUse=    60 1.00D-06 NBFU=    15     1     7     7     1    15     7     7
 Harris functional with IExCor=  205 diagonalized for initial guess.
 ExpMin= 6.00D-02 ExpMax= 1.18D+05 ExpMxC= 4.03D+03 IAcc=2 IRadAn=         0 AccDes= 0.00D+00
 HarFok:  IExCor=  205 AccDes= 0.00D+00 IRadAn=         0 IDoV= 1
 ScaDFX=  1.000000  1.000000  1.000000  1.000000
 FoFCou: FMM=F IPFlag=           0 FMFlag=      100000 FMFlg1=           0
         NFxFlg=           0 DoJE=T BraDBF=F KetDBF=T FulRan=T
         Omega=  0.000000  0.000000  1.000000  0.000000  0.000000 ICntrl=     500 IOpCl=  0
         NMat0=    1 NMatS0=    1 NMatT0=    0 NMatD0=    1 NMtDS0=    0 NMtDT0=    0
         I1Cent=           4 NGrid=           0.
 Petite list used in FoFCou.
 Mixing orbitals, IMix= 1 IMixAn=  0 NRI=1 NE=   18 Coef=  7.07106781D-01  7.07106781D-01
 Mixing orbitals, IMix= 1 IMixAn=  0 NRI=1 NE=   18 Coef= -7.07106781D-01  7.07106781D-01
 Initial guess orbital symmetries:
 Alpha Orbitals:
       Occupied  (SGG) (SGU) (SGG) (SGU) (SGG) (PIU) (PIU) (PIG)
                 (PIG) (SGU) (SGG) (PIU) (PIU) (SGU) (SGG) (PIG)
                 (PIG) (DLTG)
       Virtual   (DLTG) (PIU) (PIU) (SGG) (SGU) (SGG) (PIG) (PIG)
                 (SGU) (PIU) (PIU) (SGU) (SGG) (PIG) (PIG) (SGG)
                 (SGU) (PIU) (PIU) (SGU) (DLTU) (DLTU) (PIU) (PIU)
                 (SGG) (PIG) (PIG) (SGU) (SGG) (PIG) (PIG) (SGU)
                 (SGG) (SGU) (SGG) (PIU) (PIU) (PIG) (PIG) (SGU)
                 (SGU) (SGG)
 Beta  Orbitals:
       Occupied  (SGG) (SGU) (SGG) (SGU) (SGG) (PIU) (PIU) (PIG)
                 (PIG) (SGU) (SGG) (PIU) (PIU) (SGU) (SGG) (PIG)
                 (PIG) (DLTG)
       Virtual   (DLTG) (PIU) (PIU) (SGG) (SGU) (SGG) (PIG) (PIG)
                 (SGU) (PIU) (PIU) (SGU) (SGG) (PIG) (PIG) (SGG)
                 (SGU) (PIU) (PIU) (SGU) (DLTU) (DLTU) (PIU) (PIU)
                 (SGG) (PIG) (PIG) (SGU) (SGG) (PIG) (PIG) (SGU)
                 (SGG) (SGU) (SGG) (PIU) (PIU) (PIG) (PIG) (SGU)
                 (SGU) (SGG)
 Initial guess <Sx>= 0.0000 <Sy>= 0.0000 <Sz>= 0.0000 <S**2>= 1.0000 S= 0.6180
 Requested convergence on RMS density matrix=1.00D-08 within 128 cycles.
 Requested convergence on MAX density matrix=1.00D-06.
 Requested convergence on             energy=1.00D-06.
 No special actions if energy rises.
 Keep R1 and R2 ints in memory in canonical form, NReq=4666730.
 An orbital has undefined symmetry, so N**3 symmetry is turned off.
 Density matrix breaks symmetry, PCut= 1.00D-04
 Density matrix has no symmetry -- integrals replicated.
 Density matrix breaks symmetry, PCut= 1.00D-07
 Density matrix has no symmetry -- integrals replicated.
 Density matrix breaks symmetry, PCut= 1.00D-07
 Density matrix has no symmetry -- integrals replicated.
 Density matrix breaks symmetry, PCut= 1.00D-07
 Density matrix has no symmetry -- integrals replicated.
 Density matrix breaks symmetry, PCut= 1.00D-07
 Density matrix has no symmetry -- integrals replicated.
 Density matrix breaks symmetry, PCut= 1.00D-07
 Density matrix has no symmetry -- integrals replicated.
 Density matrix breaks symmetry, PCut= 1.00D-07
 Density matrix has no symmetry -- integrals replicated.
 Density matrix breaks symmetry, PCut= 1.00D-07
 Density matrix has no symmetry -- integrals replicated.
 Density matrix breaks symmetry, PCut= 1.00D-07
 Density matrix has no symmetry -- integrals replicated.
 Density matrix breaks symmetry, PCut= 1.00D-07
 Density matrix has no symmetry -- integrals replicated.
 Density matrix breaks symmetry, PCut= 1.00D-07
 Density matrix has no symmetry -- integrals replicated.
 Density matrix breaks symmetry, PCut= 1.00D-07
 Density matrix has no symmetry -- integrals replicated.
 SCF Done:  E(UHF) =  -1032.83247705     A.U. after   11 cycles
             Convg  =    0.2092D-08             -V/T =  1.9519
 <Sx>= 0.0000 <Sy>= 0.0000 <Sz>= 0.0000 <S**2>= 1.0000 S= 0.6180
 <L.S>= 0.000000000000E+00
 Annihilation of the first spin contaminant:
 S**2 before annihilation     1.0000,   after     0.0000
 Variable Step   Value    
 -------- ---- -----------
     1       4    1.322808
 ---------------------------------------------------------------------------------------------------
                            Z-MATRIX (ANGSTROMS AND DEGREES)
   CD    Cent   Atom    N1       Length/X        N2       Alpha/Y        N3        Beta/Z          J
 ---------------------------------------------------------------------------------------------------
      1      1  Ar
      2      2  Ar       1   0.700000(     1)
 ---------------------------------------------------------------------------------------------------
                         Z-Matrix orientation:                         
 ---------------------------------------------------------------------
 Center     Atomic      Atomic             Coordinates (Angstroms)
 Number     Number       Type             X           Y           Z
 ---------------------------------------------------------------------
      1         18           0        0.000000    0.000000    0.000000
      2         18           0        0.000000    0.000000    0.700000
 ---------------------------------------------------------------------
 Stoichiometry    Ar2
 Framework group  D*H[C*(Ar.Ar)]
 Deg. of freedom     1
 Full point group                 D*H     NOp   8
 Largest Abelian subgroup         D2H     NOp   8
 Largest concise Abelian subgroup C2      NOp   2
                         Standard orientation:                         
 ---------------------------------------------------------------------
 Center     Atomic      Atomic             Coordinates (Angstroms)
 Number     Number       Type             X           Y           Z
 ---------------------------------------------------------------------
      1         18           0        0.000000    0.000000    0.350000
      2         18           0        0.000000    0.000000   -0.350000
 ---------------------------------------------------------------------
 Rotational constants (GHZ):      0.0000000     51.6178288     51.6178288
 Standard basis: 6-311+G(d) (5D, 7F)
 There are    15 symmetry adapted basis functions of AG  symmetry.
 There are     1 symmetry adapted basis functions of B1G symmetry.
 There are     7 symmetry adapted basis functions of B2G symmetry.
 There are     7 symmetry adapted basis functions of B3G symmetry.
 There are     1 symmetry adapted basis functions of AU  symmetry.
 There are    15 symmetry adapted basis functions of B1U symmetry.
 There are     7 symmetry adapted basis functions of B2U symmetry.
 There are     7 symmetry adapted basis functions of B3U symmetry.
 Integral buffers will be    262144 words long.
 Raffenetti 2 integral format.
 Two-electron integral symmetry is turned on.
    60 basis functions,   106 primitive gaussians,    62 cartesian basis functions
    18 alpha electrons       18 beta electrons
       nuclear repulsion energy       244.9334508331 Hartrees.
 NAtoms=    2 NActive=    2 NUniq=    1 SFac= 3.00D+00 NAtFMM=   80 NAOKFM=F Big=F
 One-electron integrals computed using PRISM.
 NBasis=    60 RedAO= T  NBF=    15     1     7     7     1    15     7     7
 NBsUse=    60 1.00D-06 NBFU=    15     1     7     7     1    15     7     7
 Harris functional with IExCor=  205 diagonalized for initial guess.
 ExpMin= 6.00D-02 ExpMax= 1.18D+05 ExpMxC= 4.03D+03 IAcc=2 IRadAn=         0 AccDes= 0.00D+00
 HarFok:  IExCor=  205 AccDes= 0.00D+00 IRadAn=         0 IDoV= 1
 ScaDFX=  1.000000  1.000000  1.000000  1.000000
 FoFCou: FMM=F IPFlag=           0 FMFlag=      100000 FMFlg1=           0
         NFxFlg=           0 DoJE=T BraDBF=F KetDBF=T FulRan=T
         Omega=  0.000000  0.000000  1.000000  0.000000  0.000000 ICntrl=     500 IOpCl=  0
         NMat0=    1 NMatS0=    1 NMatT0=    0 NMatD0=    1 NMtDS0=    0 NMtDT0=    0
         I1Cent=           4 NGrid=           0.
 Petite list used in FoFCou.
 Mixing orbitals, IMix= 1 IMixAn=  0 NRI=1 NE=   18 Coef=  7.07106781D-01  7.07106781D-01
 Mixing orbitals, IMix= 1 IMixAn=  0 NRI=1 NE=   18 Coef= -7.07106781D-01  7.07106781D-01
 Initial guess orbital symmetries:
 Alpha Orbitals:
       Occupied  (SGU) (SGG) (SGG) (SGU) (SGG) (PIU) (PIU) (PIG)
                 (PIG) (SGU) (SGG) (PIU) (PIU) (SGU) (SGG) (PIG)
                 (PIG) (PIU)
       Virtual   (PIU) (SGG) (DLTG) (DLTG) (SGU) (SGG) (PIG) (PIG)
                 (SGU) (PIU) (PIU) (SGU) (SGG) (PIG) (PIG) (SGG)
                 (SGU) (PIU) (PIU) (DLTU) (DLTU) (SGU) (SGG) (PIU)
                 (PIU) (PIG) (PIG) (SGG) (SGU) (PIG) (PIG) (SGU)
                 (SGG) (SGU) (SGG) (PIU) (PIU) (PIG) (PIG) (SGU)
                 (SGG) (SGU)
 Beta  Orbitals:
       Occupied  (SGU) (SGG) (SGG) (SGU) (SGG) (PIU) (PIU) (PIG)
                 (PIG) (SGU) (SGG) (PIU) (PIU) (SGU) (SGG) (PIG)
                 (PIG) (PIU)
       Virtual   (PIU) (SGG) (DLTG) (DLTG) (SGU) (SGG) (PIG) (PIG)
                 (SGU) (PIU) (PIU) (SGU) (SGG) (PIG) (PIG) (SGG)
                 (SGU) (PIU) (PIU) (DLTU) (DLTU) (SGU) (SGG) (PIU)
                 (PIU) (PIG) (PIG) (SGG) (SGU) (PIG) (PIG) (SGU)
                 (SGG) (SGU) (SGG) (PIU) (PIU) (PIG) (PIG) (SGU)
                 (SGG) (SGU)
 Initial guess <Sx>= 0.0000 <Sy>= 0.0000 <Sz>= 0.0000 <S**2>= 1.0000 S= 0.6180
 Requested convergence on RMS density matrix=1.00D-08 within 128 cycles.
 Requested convergence on MAX density matrix=1.00D-06.
 Requested convergence on             energy=1.00D-06.
 No special actions if energy rises.
 Keep R1 and R2 ints in memory in canonical form, NReq=4666730.
 An orbital has undefined symmetry, so N**3 symmetry is turned off.
 Density matrix breaks symmetry, PCut= 1.00D-04
 Density matrix has no symmetry -- integrals replicated.
 Density matrix breaks symmetry, PCut= 1.00D-07
 Density matrix has no symmetry -- integrals replicated.
 Density matrix breaks symmetry, PCut= 1.00D-07
 Density matrix has no symmetry -- integrals replicated.
 Density matrix breaks symmetry, PCut= 1.00D-07
 Density matrix has no symmetry -- integrals replicated.
 Density matrix breaks symmetry, PCut= 1.00D-07
 Density matrix has no symmetry -- integrals replicated.
 Density matrix breaks symmetry, PCut= 1.00D-07
 Density matrix has no symmetry -- integrals replicated.
 Density matrix breaks symmetry, PCut= 1.00D-07
 Density matrix has no symmetry -- integrals replicated.
 Density matrix breaks symmetry, PCut= 1.00D-07
 Density matrix has no symmetry -- integrals replicated.
 Density matrix breaks symmetry, PCut= 1.00D-07
 Density matrix has no symmetry -- integrals replicated.
 Density matrix breaks symmetry, PCut= 1.00D-07
 Density matrix has no symmetry -- integrals replicated.
 Density matrix breaks symmetry, PCut= 1.00D-07
 Density matrix has no symmetry -- integrals replicated.
 Density matrix breaks symmetry, PCut= 1.00D-07
 Density matrix has no symmetry -- integrals replicated.
 SCF Done:  E(UHF) =  -1039.83273864     A.U. after   11 cycles
             Convg  =    0.9100D-08             -V/T =  1.9639
 <Sx>= 0.0000 <Sy>= 0.0000 <Sz>= 0.0000 <S**2>= 1.0017 S= 0.6188
 <L.S>= 0.000000000000E+00
 Annihilation of the first spin contaminant:
 S**2 before annihilation     1.0017,   after     0.0133
 Variable Step   Value    
 -------- ---- -----------
     1       5    1.511781
 ---------------------------------------------------------------------------------------------------
                            Z-MATRIX (ANGSTROMS AND DEGREES)
   CD    Cent   Atom    N1       Length/X        N2       Alpha/Y        N3        Beta/Z          J
 ---------------------------------------------------------------------------------------------------
      1      1  Ar
      2      2  Ar       1   0.800000(     1)
 ---------------------------------------------------------------------------------------------------
                         Z-Matrix orientation:                         
 ---------------------------------------------------------------------
 Center     Atomic      Atomic             Coordinates (Angstroms)
 Number     Number       Type             X           Y           Z
 ---------------------------------------------------------------------
      1         18           0        0.000000    0.000000    0.000000
      2         18           0        0.000000    0.000000    0.800000
 ---------------------------------------------------------------------
 Stoichiometry    Ar2
 Framework group  D*H[C*(Ar.Ar)]
 Deg. of freedom     1
 Full point group                 D*H     NOp   8
 Largest Abelian subgroup         D2H     NOp   8
 Largest concise Abelian subgroup C2      NOp   2
                         Standard orientation:                         
 ---------------------------------------------------------------------
 Center     Atomic      Atomic             Coordinates (Angstroms)
 Number     Number       Type             X           Y           Z
 ---------------------------------------------------------------------
      1         18           0        0.000000    0.000000    0.400000
      2         18           0        0.000000    0.000000   -0.400000
 ---------------------------------------------------------------------
 Rotational constants (GHZ):      0.0000000     39.5199002     39.5199002
 Standard basis: 6-311+G(d) (5D, 7F)
 There are    15 symmetry adapted basis functions of AG  symmetry.
 There are     1 symmetry adapted basis functions of B1G symmetry.
 There are     7 symmetry adapted basis functions of B2G symmetry.
 There are     7 symmetry adapted basis functions of B3G symmetry.
 There are     1 symmetry adapted basis functions of AU  symmetry.
 There are    15 symmetry adapted basis functions of B1U symmetry.
 There are     7 symmetry adapted basis functions of B2U symmetry.
 There are     7 symmetry adapted basis functions of B3U symmetry.
 Integral buffers will be    262144 words long.
 Raffenetti 2 integral format.
 Two-electron integral symmetry is turned on.
    60 basis functions,   106 primitive gaussians,    62 cartesian basis functions
    18 alpha electrons       18 beta electrons
       nuclear repulsion energy       214.3167694789 Hartrees.
 NAtoms=    2 NActive=    2 NUniq=    1 SFac= 3.00D+00 NAtFMM=   80 NAOKFM=F Big=F
 One-electron integrals computed using PRISM.
 NBasis=    60 RedAO= T  NBF=    15     1     7     7     1    15     7     7
 NBsUse=    60 1.00D-06 NBFU=    15     1     7     7     1    15     7     7
 Harris functional with IExCor=  205 diagonalized for initial guess.
 ExpMin= 6.00D-02 ExpMax= 1.18D+05 ExpMxC= 4.03D+03 IAcc=2 IRadAn=         0 AccDes= 0.00D+00
 HarFok:  IExCor=  205 AccDes= 0.00D+00 IRadAn=         0 IDoV= 1
 ScaDFX=  1.000000  1.000000  1.000000  1.000000
 FoFCou: FMM=F IPFlag=           0 FMFlag=      100000 FMFlg1=           0
         NFxFlg=           0 DoJE=T BraDBF=F KetDBF=T FulRan=T
         Omega=  0.000000  0.000000  1.000000  0.000000  0.000000 ICntrl=     500 IOpCl=  0
         NMat0=    1 NMatS0=    1 NMatT0=    0 NMatD0=    1 NMtDS0=    0 NMtDT0=    0
         I1Cent=           4 NGrid=           0.
 Petite list used in FoFCou.
 Mixing orbitals, IMix= 1 IMixAn=  0 NRI=1 NE=   18 Coef=  7.07106781D-01  7.07106781D-01
 Mixing orbitals, IMix= 1 IMixAn=  0 NRI=1 NE=   18 Coef= -7.07106781D-01  7.07106781D-01
 Initial guess orbital symmetries:
 Alpha Orbitals:
       Occupied  (SGU) (SGG) (SGG) (SGU) (SGG) (PIU) (PIU) (PIG)
                 (PIG) (SGU) (SGG) (PIU) (PIU) (SGU) (SGG) (PIG)
                 (PIG) (PIU)
       Virtual   (PIU) (SGG) (SGU) (SGG) (DLTG) (DLTG) (PIG) (PIG)
                 (SGU) (PIU) (PIU) (SGU) (SGG) (PIG) (PIG) (SGU)
                 (SGG) (PIU) (PIU) (DLTU) (DLTU) (SGU) (SGG) (PIU)
                 (PIU) (PIG) (PIG) (SGG) (SGU) (PIG) (PIG) (SGU)
                 (SGG) (SGU) (SGG) (PIU) (PIU) (PIG) (PIG) (SGU)
                 (SGG) (SGU)
 Beta  Orbitals:
       Occupied  (SGU) (SGG) (SGG) (SGU) (SGG) (PIU) (PIU) (PIG)
                 (PIG) (SGU) (SGG) (PIU) (PIU) (SGU) (SGG) (PIG)
                 (PIG) (PIU)
       Virtual   (PIU) (SGG) (SGU) (SGG) (DLTG) (DLTG) (PIG) (PIG)
                 (SGU) (PIU) (PIU) (SGU) (SGG) (PIG) (PIG) (SGU)
                 (SGG) (PIU) (PIU) (DLTU) (DLTU) (SGU) (SGG) (PIU)
                 (PIU) (PIG) (PIG) (SGG) (SGU) (PIG) (PIG) (SGU)
                 (SGG) (SGU) (SGG) (PIU) (PIU) (PIG) (PIG) (SGU)
                 (SGG) (SGU)
 Initial guess <Sx>= 0.0000 <Sy>= 0.0000 <Sz>= 0.0000 <S**2>= 1.0000 S= 0.6180
 Requested convergence on RMS density matrix=1.00D-08 within 128 cycles.
 Requested convergence on MAX density matrix=1.00D-06.
 Requested convergence on             energy=1.00D-06.
 No special actions if energy rises.
 Keep R1 and R2 ints in memory in canonical form, NReq=4666730.
 An orbital has undefined symmetry, so N**3 symmetry is turned off.
 Density matrix breaks symmetry, PCut= 1.00D-04
 Density matrix has no symmetry -- integrals replicated.
 Density matrix breaks symmetry, PCut= 1.00D-07
 Density matrix has no symmetry -- integrals replicated.
 Density matrix breaks symmetry, PCut= 1.00D-07
 Density matrix has no symmetry -- integrals replicated.
 Density matrix breaks symmetry, PCut= 1.00D-07
 Density matrix has no symmetry -- integrals replicated.
 Density matrix breaks symmetry, PCut= 1.00D-07
 Density matrix has no symmetry -- integrals replicated.
 Density matrix breaks symmetry, PCut= 1.00D-07
 Density matrix has no symmetry -- integrals replicated.
 Density matrix breaks symmetry, PCut= 1.00D-07
 Density matrix has no symmetry -- integrals replicated.
 Density matrix breaks symmetry, PCut= 1.00D-07
 Density matrix has no symmetry -- integrals replicated.
 Density matrix breaks symmetry, PCut= 1.00D-07
 Density matrix has no symmetry -- integrals replicated.
 Density matrix breaks symmetry, PCut= 1.00D-07
 Density matrix has no symmetry -- integrals replicated.
 Density matrix breaks symmetry, PCut= 1.00D-07
 Density matrix has no symmetry -- integrals replicated.
 Density matrix breaks symmetry, PCut= 1.00D-07
 Density matrix has no symmetry -- integrals replicated.
 SCF Done:  E(UHF) =  -1044.48690273     A.U. after   11 cycles
             Convg  =    0.5824D-09             -V/T =  1.9726
 <Sx>= 0.0000 <Sy>= 0.0000 <Sz>= 0.0000 <S**2>= 1.0017 S= 0.6188
 <L.S>= 0.000000000000E+00
 Annihilation of the first spin contaminant:
 S**2 before annihilation     1.0017,   after     0.0140
 Variable Step   Value    
 -------- ---- -----------
     1       6    1.700754
 ---------------------------------------------------------------------------------------------------
                            Z-MATRIX (ANGSTROMS AND DEGREES)
   CD    Cent   Atom    N1       Length/X        N2       Alpha/Y        N3        Beta/Z          J
 ---------------------------------------------------------------------------------------------------
      1      1  Ar
      2      2  Ar       1   0.900000(     1)
 ---------------------------------------------------------------------------------------------------
                         Z-Matrix orientation:                         
 ---------------------------------------------------------------------
 Center     Atomic      Atomic             Coordinates (Angstroms)
 Number     Number       Type             X           Y           Z
 ---------------------------------------------------------------------
      1         18           0        0.000000    0.000000    0.000000
      2         18           0        0.000000    0.000000    0.900000
 ---------------------------------------------------------------------
 Stoichiometry    Ar2
 Framework group  D*H[C*(Ar.Ar)]
 Deg. of freedom     1
 Full point group                 D*H     NOp   8
 Largest Abelian subgroup         D2H     NOp   8
 Largest concise Abelian subgroup C2      NOp   2
                         Standard orientation:                         
 ---------------------------------------------------------------------
 Center     Atomic      Atomic             Coordinates (Angstroms)
 Number     Number       Type             X           Y           Z
 ---------------------------------------------------------------------
      1         18           0        0.000000    0.000000    0.450000
      2         18           0        0.000000    0.000000   -0.450000
 ---------------------------------------------------------------------
 Rotational constants (GHZ):      0.0000000     31.2256001     31.2256001
 Standard basis: 6-311+G(d) (5D, 7F)
 There are    15 symmetry adapted basis functions of AG  symmetry.
 There are     1 symmetry adapted basis functions of B1G symmetry.
 There are     7 symmetry adapted basis functions of B2G symmetry.
 There are     7 symmetry adapted basis functions of B3G symmetry.
 There are     1 symmetry adapted basis functions of AU  symmetry.
 There are    15 symmetry adapted basis functions of B1U symmetry.
 There are     7 symmetry adapted basis functions of B2U symmetry.
 There are     7 symmetry adapted basis functions of B3U symmetry.
 Integral buffers will be    262144 words long.
 Raffenetti 2 integral format.
 Two-electron integral symmetry is turned on.
    60 basis functions,   106 primitive gaussians,    62 cartesian basis functions
    18 alpha electrons       18 beta electrons
       nuclear repulsion energy       190.5037950924 Hartrees.
 NAtoms=    2 NActive=    2 NUniq=    1 SFac= 3.00D+00 NAtFMM=   80 NAOKFM=F Big=F
 One-electron integrals computed using PRISM.
 NBasis=    60 RedAO= T  NBF=    15     1     7     7     1    15     7     7
 NBsUse=    60 1.00D-06 NBFU=    15     1     7     7     1    15     7     7
 Harris functional with IExCor=  205 diagonalized for initial guess.
 ExpMin= 6.00D-02 ExpMax= 1.18D+05 ExpMxC= 4.03D+03 IAcc=2 IRadAn=         0 AccDes= 0.00D+00
 HarFok:  IExCor=  205 AccDes= 0.00D+00 IRadAn=         0 IDoV= 1
 ScaDFX=  1.000000  1.000000  1.000000  1.000000
 FoFCou: FMM=F IPFlag=           0 FMFlag=      100000 FMFlg1=           0
         NFxFlg=           0 DoJE=T BraDBF=F KetDBF=T FulRan=T
         Omega=  0.000000  0.000000  1.000000  0.000000  0.000000 ICntrl=     500 IOpCl=  0
         NMat0=    1 NMatS0=    1 NMatT0=    0 NMatD0=    1 NMtDS0=    0 NMtDT0=    0
         I1Cent=           4 NGrid=           0.
 Petite list used in FoFCou.
 Mixing orbitals, IMix= 1 IMixAn=  0 NRI=1 NE=   18 Coef=  7.07106781D-01  7.07106781D-01
 Mixing orbitals, IMix= 1 IMixAn=  0 NRI=1 NE=   18 Coef= -7.07106781D-01  7.07106781D-01
 Initial guess orbital symmetries:
 Alpha Orbitals:
       Occupied  (SGU) (SGG) (SGG) (SGU) (SGG) (PIU) (PIU) (PIG)
                 (PIG) (SGU) (SGG) (PIU) (PIU) (SGU) (SGG) (PIG)
                 (PIG) (?A)
       Virtual   (?A) (?A) (SGU) (SGG) (PIG) (PIG) (SGU) (PIU)
                 (PIU) (DLTG) (DLTG) (SGG) (SGU) (PIG) (PIG) (SGU)
                 (PIU) (PIU) (SGG) (DLTU) (DLTU) (SGG) (SGU) (PIG)
                 (PIG) (PIU) (PIU) (SGG) (SGU) (PIG) (PIG) (SGU)
                 (SGG) (SGU) (PIU) (PIU) (PIG) (PIG) (SGG) (SGU)
                 (SGG) (SGU)
 Beta  Orbitals:
       Occupied  (SGU) (SGG) (SGG) (SGU) (SGG) (PIU) (PIU) (PIG)
                 (PIG) (SGU) (SGG) (PIU) (PIU) (SGU) (SGG) (PIG)
                 (PIG) (?A)
       Virtual   (?A) (?A) (SGU) (SGG) (PIG) (PIG) (SGU) (PIU)
                 (PIU) (DLTG) (DLTG) (SGG) (SGU) (PIG) (PIG) (SGU)
                 (PIU) (PIU) (SGG) (DLTU) (DLTU) (SGG) (SGU) (PIG)
                 (PIG) (PIU) (PIU) (SGG) (SGU) (PIG) (PIG) (SGU)
                 (SGG) (SGU) (PIU) (PIU) (PIG) (PIG) (SGG) (SGU)
                 (SGG) (SGU)
 Initial guess <Sx>= 0.0000 <Sy>= 0.0000 <Sz>= 0.0000 <S**2>= 1.0000 S= 0.6180
 Requested convergence on RMS density matrix=1.00D-08 within 128 cycles.
 Requested convergence on MAX density matrix=1.00D-06.
 Requested convergence on             energy=1.00D-06.
 No special actions if energy rises.
 Keep R1 and R2 ints in memory in canonical form, NReq=4666730.
 An orbital has undefined symmetry, so N**3 symmetry is turned off.
 Density matrix breaks symmetry, PCut= 1.00D-04
 Density matrix has no symmetry -- integrals replicated.
 Density matrix breaks symmetry, PCut= 1.00D-07
 Density matrix has no symmetry -- integrals replicated.
 Density matrix breaks symmetry, PCut= 1.00D-07
 Density matrix has no symmetry -- integrals replicated.
 Density matrix breaks symmetry, PCut= 1.00D-07
 Density matrix has no symmetry -- integrals replicated.
 Density matrix breaks symmetry, PCut= 1.00D-07
 Density matrix has no symmetry -- integrals replicated.
 Density matrix breaks symmetry, PCut= 1.00D-07
 Density matrix has no symmetry -- integrals replicated.
 Density matrix breaks symmetry, PCut= 1.00D-07
 Density matrix has no symmetry -- integrals replicated.
 Density matrix breaks symmetry, PCut= 1.00D-07
 Density matrix has no symmetry -- integrals replicated.
 Density matrix breaks symmetry, PCut= 1.00D-07
 Density matrix has no symmetry -- integrals replicated.
 Density matrix breaks symmetry, PCut= 1.00D-07
 Density matrix has no symmetry -- integrals replicated.
 Density matrix breaks symmetry, PCut= 1.00D-07
 Density matrix has no symmetry -- integrals replicated.
 Density matrix breaks symmetry, PCut= 1.00D-07
 Density matrix has no symmetry -- integrals replicated.
 Density matrix breaks symmetry, PCut= 1.00D-07
 Density matrix has no symmetry -- integrals replicated.
 Density matrix breaks symmetry, PCut= 1.00D-07
 Density matrix has no symmetry -- integrals replicated.
 Density matrix breaks symmetry, PCut= 1.00D-07
 Density matrix has no symmetry -- integrals replicated.
 SCF Done:  E(UHF) =  -1047.60399800     A.U. after   14 cycles
             Convg  =    0.3313D-08             -V/T =  1.9797
 <Sx>= 0.0000 <Sy>= 0.0000 <Sz>= 0.0000 <S**2>= 0.9929 S= 0.6149
 <L.S>= 0.000000000000E+00
 Annihilation of the first spin contaminant:
 S**2 before annihilation     0.9929,   after     0.0298
 Variable Step   Value    
 -------- ---- -----------
     1       7    1.889726
 ---------------------------------------------------------------------------------------------------
                            Z-MATRIX (ANGSTROMS AND DEGREES)
   CD    Cent   Atom    N1       Length/X        N2       Alpha/Y        N3        Beta/Z          J
 ---------------------------------------------------------------------------------------------------
      1      1  Ar
      2      2  Ar       1   1.000000(     1)
 ---------------------------------------------------------------------------------------------------
                         Z-Matrix orientation:                         
 ---------------------------------------------------------------------
 Center     Atomic      Atomic             Coordinates (Angstroms)
 Number     Number       Type             X           Y           Z
 ---------------------------------------------------------------------
      1         18           0        0.000000    0.000000    0.000000
      2         18           0        0.000000    0.000000    1.000000
 ---------------------------------------------------------------------
 Stoichiometry    Ar2
 Framework group  D*H[C*(Ar.Ar)]
 Deg. of freedom     1
 Full point group                 D*H     NOp   8
 Largest Abelian subgroup         D2H     NOp   8
 Largest concise Abelian subgroup C2      NOp   2
                         Standard orientation:                         
 ---------------------------------------------------------------------
 Center     Atomic      Atomic             Coordinates (Angstroms)
 Number     Number       Type             X           Y           Z
 ---------------------------------------------------------------------
      1         18           0        0.000000    0.000000    0.500000
      2         18           0        0.000000    0.000000   -0.500000
 ---------------------------------------------------------------------
 Rotational constants (GHZ):      0.0000000     25.2927361     25.2927361
 Standard basis: 6-311+G(d) (5D, 7F)
 There are    15 symmetry adapted basis functions of AG  symmetry.
 There are     1 symmetry adapted basis functions of B1G symmetry.
 There are     7 symmetry adapted basis functions of B2G symmetry.
 There are     7 symmetry adapted basis functions of B3G symmetry.
 There are     1 symmetry adapted basis functions of AU  symmetry.
 There are    15 symmetry adapted basis functions of B1U symmetry.
 There are     7 symmetry adapted basis functions of B2U symmetry.
 There are     7 symmetry adapted basis functions of B3U symmetry.
 Integral buffers will be    262144 words long.
 Raffenetti 2 integral format.
 Two-electron integral symmetry is turned on.
    60 basis functions,   106 primitive gaussians,    62 cartesian basis functions
    18 alpha electrons       18 beta electrons
       nuclear repulsion energy       171.4534155832 Hartrees.
 NAtoms=    2 NActive=    2 NUniq=    1 SFac= 3.00D+00 NAtFMM=   80 NAOKFM=F Big=F
 One-electron integrals computed using PRISM.
 NBasis=    60 RedAO= T  NBF=    15     1     7     7     1    15     7     7
 NBsUse=    60 1.00D-06 NBFU=    15     1     7     7     1    15     7     7
 Harris functional with IExCor=  205 diagonalized for initial guess.
 ExpMin= 6.00D-02 ExpMax= 1.18D+05 ExpMxC= 4.03D+03 IAcc=2 IRadAn=         0 AccDes= 0.00D+00
 HarFok:  IExCor=  205 AccDes= 0.00D+00 IRadAn=         0 IDoV= 1
 ScaDFX=  1.000000  1.000000  1.000000  1.000000
 FoFCou: FMM=F IPFlag=           0 FMFlag=      100000 FMFlg1=           0
         NFxFlg=           0 DoJE=T BraDBF=F KetDBF=T FulRan=T
         Omega=  0.000000  0.000000  1.000000  0.000000  0.000000 ICntrl=     500 IOpCl=  0
         NMat0=    1 NMatS0=    1 NMatT0=    0 NMatD0=    1 NMtDS0=    0 NMtDT0=    0
         I1Cent=           4 NGrid=           0.
 Petite list used in FoFCou.
 Mixing orbitals, IMix= 1 IMixAn=  0 NRI=1 NE=   18 Coef=  7.07106781D-01  7.07106781D-01
 Mixing orbitals, IMix= 1 IMixAn=  0 NRI=1 NE=   18 Coef= -7.07106781D-01  7.07106781D-01
 Initial guess orbital symmetries:
 Alpha Orbitals:
       Occupied  (SGU) (SGG) (SGG) (SGU) (SGG) (PIU) (PIU) (SGU)
                 (PIG) (PIG) (SGG) (PIU) (PIU) (SGU) (SGG) (PIG)
                 (PIG) (?A)
       Virtual   (?A) (?A) (SGU) (SGG) (PIG) (PIG) (SGU) (PIU)
                 (PIU) (SGU) (SGG) (DLTG) (DLTG) (PIG) (PIG) (SGU)
                 (PIU) (PIU) (SGG) (DLTU) (DLTU) (SGG) (SGU) (PIG)
                 (PIG) (PIU) (PIU) (SGG) (SGU) (PIG) (PIG) (SGU)
                 (SGG) (SGU) (PIU) (PIU) (PIG) (PIG) (SGG) (SGU)
                 (SGG) (SGU)
 Beta  Orbitals:
       Occupied  (SGU) (SGG) (SGG) (SGU) (SGG) (PIU) (PIU) (SGU)
                 (PIG) (PIG) (SGG) (PIU) (PIU) (SGU) (SGG) (PIG)
                 (PIG) (?A)
       Virtual   (?A) (?A) (SGU) (SGG) (PIG) (PIG) (SGU) (PIU)
                 (PIU) (SGU) (SGG) (DLTG) (DLTG) (PIG) (PIG) (SGU)
                 (PIU) (PIU) (SGG) (DLTU) (DLTU) (SGG) (SGU) (PIG)
                 (PIG) (PIU) (PIU) (SGG) (SGU) (PIG) (PIG) (SGU)
                 (SGG) (SGU) (PIU) (PIU) (PIG) (PIG) (SGG) (SGU)
                 (SGG) (SGU)
 Initial guess <Sx>= 0.0000 <Sy>= 0.0000 <Sz>= 0.0000 <S**2>= 1.0000 S= 0.6180
 Requested convergence on RMS density matrix=1.00D-08 within 128 cycles.
 Requested convergence on MAX density matrix=1.00D-06.
 Requested convergence on             energy=1.00D-06.
 No special actions if energy rises.
 Keep R1 and R2 ints in memory in canonical form, NReq=4666730.
 An orbital has undefined symmetry, so N**3 symmetry is turned off.
 Density matrix breaks symmetry, PCut= 1.00D-04
 Density matrix has no symmetry -- integrals replicated.
 Density matrix breaks symmetry, PCut= 1.00D-07
 Density matrix has no symmetry -- integrals replicated.
 Density matrix breaks symmetry, PCut= 1.00D-07
 Density matrix has no symmetry -- integrals replicated.
 Density matrix breaks symmetry, PCut= 1.00D-07
 Density matrix has no symmetry -- integrals replicated.
 Density matrix breaks symmetry, PCut= 1.00D-07
 Density matrix has no symmetry -- integrals replicated.
 Density matrix breaks symmetry, PCut= 1.00D-07
 Density matrix has no symmetry -- integrals replicated.
 Density matrix breaks symmetry, PCut= 1.00D-07
 Density matrix has no symmetry -- integrals replicated.
 Density matrix breaks symmetry, PCut= 1.00D-07
 Density matrix has no symmetry -- integrals replicated.
 Density matrix breaks symmetry, PCut= 1.00D-07
 Density matrix has no symmetry -- integrals replicated.
 Density matrix breaks symmetry, PCut= 1.00D-07
 Density matrix has no symmetry -- integrals replicated.
 Density matrix breaks symmetry, PCut= 1.00D-07
 Density matrix has no symmetry -- integrals replicated.
 Density matrix breaks symmetry, PCut= 1.00D-07
 Density matrix has no symmetry -- integrals replicated.
 Density matrix breaks symmetry, PCut= 1.00D-07
 Density matrix has no symmetry -- integrals replicated.
 Density matrix breaks symmetry, PCut= 1.00D-07
 Density matrix has no symmetry -- integrals replicated.
 Density matrix breaks symmetry, PCut= 1.00D-07
 Density matrix has no symmetry -- integrals replicated.
 SCF Done:  E(UHF) =  -1049.59183616     A.U. after   14 cycles
             Convg  =    0.6247D-08             -V/T =  1.9858
 <Sx>= 0.0000 <Sy>= 0.0000 <Sz>= 0.0000 <S**2>= 0.8893 S= 0.5674
 <L.S>= 0.000000000000E+00
 Annihilation of the first spin contaminant:
 S**2 before annihilation     0.8893,   after     0.0170
 Variable Step   Value    
 -------- ---- -----------
     1       8    2.078699
 ---------------------------------------------------------------------------------------------------
                            Z-MATRIX (ANGSTROMS AND DEGREES)
   CD    Cent   Atom    N1       Length/X        N2       Alpha/Y        N3        Beta/Z          J
 ---------------------------------------------------------------------------------------------------
      1      1  Ar
      2      2  Ar       1   1.100000(     1)
 ---------------------------------------------------------------------------------------------------
                         Z-Matrix orientation:                         
 ---------------------------------------------------------------------
 Center     Atomic      Atomic             Coordinates (Angstroms)
 Number     Number       Type             X           Y           Z
 ---------------------------------------------------------------------
      1         18           0        0.000000    0.000000    0.000000
      2         18           0        0.000000    0.000000    1.100000
 ---------------------------------------------------------------------
 Stoichiometry    Ar2
 Framework group  D*H[C*(Ar.Ar)]
 Deg. of freedom     1
 Full point group                 D*H     NOp   8
 Largest Abelian subgroup         D2H     NOp   8
 Largest concise Abelian subgroup C2      NOp   2
                         Standard orientation:                         
 ---------------------------------------------------------------------
 Center     Atomic      Atomic             Coordinates (Angstroms)
 Number     Number       Type             X           Y           Z
 ---------------------------------------------------------------------
      1         18           0        0.000000    0.000000    0.550000
      2         18           0        0.000000    0.000000   -0.550000
 ---------------------------------------------------------------------
 Rotational constants (GHZ):      0.0000000     20.9030877     20.9030877
 Standard basis: 6-311+G(d) (5D, 7F)
 There are    15 symmetry adapted basis functions of AG  symmetry.
 There are     1 symmetry adapted basis functions of B1G symmetry.
 There are     7 symmetry adapted basis functions of B2G symmetry.
 There are     7 symmetry adapted basis functions of B3G symmetry.
 There are     1 symmetry adapted basis functions of AU  symmetry.
 There are    15 symmetry adapted basis functions of B1U symmetry.
 There are     7 symmetry adapted basis functions of B2U symmetry.
 There are     7 symmetry adapted basis functions of B3U symmetry.
 Integral buffers will be    262144 words long.
 Raffenetti 2 integral format.
 Two-electron integral symmetry is turned on.
    60 basis functions,   106 primitive gaussians,    62 cartesian basis functions
    18 alpha electrons       18 beta electrons
       nuclear repulsion energy       155.8667414392 Hartrees.
 NAtoms=    2 NActive=    2 NUniq=    1 SFac= 3.00D+00 NAtFMM=   80 NAOKFM=F Big=F
 One-electron integrals computed using PRISM.
 NBasis=    60 RedAO= T  NBF=    15     1     7     7     1    15     7     7
 NBsUse=    60 1.00D-06 NBFU=    15     1     7     7     1    15     7     7
 Harris functional with IExCor=  205 diagonalized for initial guess.
 ExpMin= 6.00D-02 ExpMax= 1.18D+05 ExpMxC= 4.03D+03 IAcc=2 IRadAn=         0 AccDes= 0.00D+00
 HarFok:  IExCor=  205 AccDes= 0.00D+00 IRadAn=         0 IDoV= 1
 ScaDFX=  1.000000  1.000000  1.000000  1.000000
 FoFCou: FMM=F IPFlag=           0 FMFlag=      100000 FMFlg1=           0
         NFxFlg=           0 DoJE=T BraDBF=F KetDBF=T FulRan=T
         Omega=  0.000000  0.000000  1.000000  0.000000  0.000000 ICntrl=     500 IOpCl=  0
         NMat0=    1 NMatS0=    1 NMatT0=    0 NMatD0=    1 NMtDS0=    0 NMtDT0=    0
         I1Cent=           4 NGrid=           0.
 Petite list used in FoFCou.
 Mixing orbitals, IMix= 1 IMixAn=  0 NRI=1 NE=   18 Coef=  7.07106781D-01  7.07106781D-01
 Mixing orbitals, IMix= 1 IMixAn=  0 NRI=1 NE=   18 Coef= -7.07106781D-01  7.07106781D-01
 Initial guess orbital symmetries:
 Alpha Orbitals:
       Occupied  (SGU) (SGG) (SGG) (SGU) (SGG) (SGU) (PIU) (PIU)
                 (PIG) (PIG) (SGG) (PIU) (PIU) (SGU) (SGG) (PIG)
                 (PIG) (?A)
       Virtual   (?A) (?A) (SGU) (SGG) (PIG) (PIG) (SGU) (SGU)
                 (SGG) (PIU) (PIU) (DLTG) (DLTG) (PIG) (PIG) (SGU)
                 (PIU) (PIU) (SGG) (DLTU) (DLTU) (SGG) (SGU) (PIG)
                 (PIG) (PIU) (PIU) (SGG) (SGU) (PIG) (PIG) (SGU)
                 (SGG) (SGU) (PIU) (PIU) (PIG) (PIG) (SGG) (SGU)
                 (SGG) (SGU)
 Beta  Orbitals:
       Occupied  (SGU) (SGG) (SGG) (SGU) (SGG) (SGU) (PIU) (PIU)
                 (PIG) (PIG) (SGG) (PIU) (PIU) (SGU) (SGG) (PIG)
                 (PIG) (?A)
       Virtual   (?A) (?A) (SGU) (SGG) (PIG) (PIG) (SGU) (SGU)
                 (SGG) (PIU) (PIU) (DLTG) (DLTG) (PIG) (PIG) (SGU)
                 (PIU) (PIU) (SGG) (DLTU) (DLTU) (SGG) (SGU) (PIG)
                 (PIG) (PIU) (PIU) (SGG) (SGU) (PIG) (PIG) (SGU)
                 (SGG) (SGU) (PIU) (PIU) (PIG) (PIG) (SGG) (SGU)
                 (SGG) (SGU)
 Initial guess <Sx>= 0.0000 <Sy>= 0.0000 <Sz>= 0.0000 <S**2>= 1.0000 S= 0.6180
 Requested convergence on RMS density matrix=1.00D-08 within 128 cycles.
[...]
 Density matrix breaks symmetry, PCut= 1.00D-07
 Density matrix has no symmetry -- integrals replicated.
 Density matrix breaks symmetry, PCut= 1.00D-07
 Density matrix has no symmetry -- integrals replicated.
 Density matrix breaks symmetry, PCut= 1.00D-07
 Density matrix has no symmetry -- integrals replicated.
 Density matrix breaks symmetry, PCut= 1.00D-07
 Density matrix has no symmetry -- integrals replicated.
 Density matrix breaks symmetry, PCut= 1.00D-07
 Density matrix has no symmetry -- integrals replicated.
 Density matrix breaks symmetry, PCut= 1.00D-07
 Density matrix has no symmetry -- integrals replicated.
 Density matrix breaks symmetry, PCut= 1.00D-07
 Density matrix has no symmetry -- integrals replicated.
 Density matrix breaks symmetry, PCut= 1.00D-07
 Density matrix has no symmetry -- integrals replicated.
 Density matrix breaks symmetry, PCut= 1.00D-07
 Density matrix has no symmetry -- integrals replicated.
 Density matrix breaks symmetry, PCut= 1.00D-07
 Density matrix has no symmetry -- integrals replicated.
 Density matrix breaks symmetry, PCut= 1.00D-07
 Density matrix has no symmetry -- integrals replicated.
 SCF Done:  E(UHF) =  -1053.61386126     A.U. after   12 cycles
             Convg  =    0.8695D-08             -V/T =  2.0000
 <Sx>= 0.0000 <Sy>= 0.0000 <Sz>= 0.0000 <S**2>= 0.0000 S= 0.0000
 <L.S>= 0.000000000000E+00
 Annihilation of the first spin contaminant:
 S**2 before annihilation     0.0000,   after     0.0000
 Variable Step   Value    
 -------- ---- -----------
     1      49    9.826576
 ---------------------------------------------------------------------------------------------------
                            Z-MATRIX (ANGSTROMS AND DEGREES)
   CD    Cent   Atom    N1       Length/X        N2       Alpha/Y        N3        Beta/Z          J
 ---------------------------------------------------------------------------------------------------
      1      1  Ar
      2      2  Ar       1   5.200000(     1)
 ---------------------------------------------------------------------------------------------------
                         Z-Matrix orientation:                         
 ---------------------------------------------------------------------
 Center     Atomic      Atomic             Coordinates (Angstroms)
 Number     Number       Type             X           Y           Z
 ---------------------------------------------------------------------
      1         18           0        0.000000    0.000000    0.000000
      2         18           0        0.000000    0.000000    5.200000
 ---------------------------------------------------------------------
 Stoichiometry    Ar2
 Framework group  D*H[C*(Ar.Ar)]
 Deg. of freedom     1
 Full point group                 D*H     NOp   8
 Largest Abelian subgroup         D2H     NOp   8
 Largest concise Abelian subgroup C2      NOp   2
                         Standard orientation:                         
 ---------------------------------------------------------------------
 Center     Atomic      Atomic             Coordinates (Angstroms)
 Number     Number       Type             X           Y           Z
 ---------------------------------------------------------------------
      1         18           0        0.000000    0.000000    2.600000
      2         18           0        0.000000    0.000000   -2.600000
 ---------------------------------------------------------------------
 Rotational constants (GHZ):      0.0000000      0.9353823      0.9353823
 Standard basis: 6-311+G(d) (5D, 7F)
 There are    15 symmetry adapted basis functions of AG  symmetry.
 There are     1 symmetry adapted basis functions of B1G symmetry.
 There are     7 symmetry adapted basis functions of B2G symmetry.
 There are     7 symmetry adapted basis functions of B3G symmetry.
 There are     1 symmetry adapted basis functions of AU  symmetry.
 There are    15 symmetry adapted basis functions of B1U symmetry.
 There are     7 symmetry adapted basis functions of B2U symmetry.
 There are     7 symmetry adapted basis functions of B3U symmetry.
 Integral buffers will be    262144 words long.
 Raffenetti 2 integral format.
 Two-electron integral symmetry is turned on.
    60 basis functions,   106 primitive gaussians,    62 cartesian basis functions
    18 alpha electrons       18 beta electrons
       nuclear repulsion energy        32.9718106891 Hartrees.
 NAtoms=    2 NActive=    2 NUniq=    1 SFac= 3.00D+00 NAtFMM=   80 NAOKFM=F Big=F
 One-electron integrals computed using PRISM.
 NBasis=    60 RedAO= T  NBF=    15     1     7     7     1    15     7     7
 NBsUse=    60 1.00D-06 NBFU=    15     1     7     7     1    15     7     7
 Harris functional with IExCor=  205 diagonalized for initial guess.
 ExpMin= 6.00D-02 ExpMax= 1.18D+05 ExpMxC= 4.03D+03 IAcc=2 IRadAn=         0 AccDes= 0.00D+00
 HarFok:  IExCor=  205 AccDes= 0.00D+00 IRadAn=         0 IDoV= 1
 ScaDFX=  1.000000  1.000000  1.000000  1.000000
 FoFCou: FMM=F IPFlag=           0 FMFlag=      100000 FMFlg1=           0
         NFxFlg=           0 DoJE=T BraDBF=F KetDBF=T FulRan=T
         Omega=  0.000000  0.000000  1.000000  0.000000  0.000000 ICntrl=     500 IOpCl=  0
         NMat0=    1 NMatS0=    1 NMatT0=    0 NMatD0=    1 NMtDS0=    0 NMtDT0=    0
         I1Cent=           4 NGrid=           0.
 Petite list used in FoFCou.
 Mixing orbitals, IMix= 1 IMixAn=  0 NRI=1 NE=   18 Coef=  7.07106781D-01  7.07106781D-01
 Mixing orbitals, IMix= 1 IMixAn=  0 NRI=1 NE=   18 Coef= -7.07106781D-01  7.07106781D-01
 Initial guess orbital symmetries:
 Alpha Orbitals:
       Occupied  (SGU) (SGG) (SGU) (SGG) (SGG) (PIG) (PIG) (SGU)
                 (PIU) (PIU) (SGG) (SGU) (SGG) (PIU) (PIU) (PIG)
                 (PIG) (?A)
       Virtual   (?A) (SGU) (SGG) (PIU) (PIU) (PIG) (PIG) (SGU)
                 (PIU) (PIU) (SGU) (PIG) (PIG) (SGG) (DLTG) (DLTU)
                 (DLTG) (DLTU) (PIU) (PIU) (PIG) (PIG) (SGG) (SGU)
                 (SGG) (SGU) (PIU) (PIU) (SGU) (PIG) (PIG) (SGG)
                 (SGG) (SGU) (PIU) (PIU) (PIG) (PIG) (SGU) (SGG)
                 (SGG) (SGU)
 Beta  Orbitals:
       Occupied  (SGU) (SGG) (SGU) (SGG) (SGG) (PIG) (PIG) (SGU)
                 (PIU) (PIU) (SGG) (SGU) (SGG) (PIU) (PIU) (PIG)
                 (PIG) (?A)
       Virtual   (?A) (SGU) (SGG) (PIU) (PIU) (PIG) (PIG) (SGU)
                 (PIU) (PIU) (SGU) (PIG) (PIG) (SGG) (DLTG) (DLTU)
                 (DLTG) (DLTU) (PIU) (PIU) (PIG) (PIG) (SGG) (SGU)
                 (SGG) (SGU) (PIU) (PIU) (SGU) (PIG) (PIG) (SGG)
                 (SGG) (SGU) (PIU) (PIU) (PIG) (PIG) (SGU) (SGG)
                 (SGG) (SGU)
 Initial guess <Sx>= 0.0000 <Sy>= 0.0000 <Sz>= 0.0000 <S**2>= 1.0000 S= 0.6180
 Requested convergence on RMS density matrix=1.00D-08 within 128 cycles.
 Requested convergence on MAX density matrix=1.00D-06.
 Requested convergence on             energy=1.00D-06.
 No special actions if energy rises.
 Keep R1 and R2 ints in memory in canonical form, NReq=4666730.
 An orbital has undefined symmetry, so N**3 symmetry is turned off.
 Density matrix breaks symmetry, PCut= 1.00D-04
 Density matrix has no symmetry -- integrals replicated.
 Density matrix breaks symmetry, PCut= 1.00D-07
 Density matrix has no symmetry -- integrals replicated.
 Density matrix breaks symmetry, PCut= 1.00D-07
 Density matrix has no symmetry -- integrals replicated.
 Density matrix breaks symmetry, PCut= 1.00D-07
 Density matrix has no symmetry -- integrals replicated.
 Density matrix breaks symmetry, PCut= 1.00D-07
 Density matrix has no symmetry -- integrals replicated.
 Density matrix breaks symmetry, PCut= 1.00D-07
 Density matrix has no symmetry -- integrals replicated.
 Density matrix breaks symmetry, PCut= 1.00D-07
 Density matrix has no symmetry -- integrals replicated.
 Density matrix breaks symmetry, PCut= 1.00D-07
 Density matrix has no symmetry -- integrals replicated.
 Density matrix breaks symmetry, PCut= 1.00D-07
 Density matrix has no symmetry -- integrals replicated.
 Density matrix breaks symmetry, PCut= 1.00D-07
 Density matrix has no symmetry -- integrals replicated.
 Density matrix breaks symmetry, PCut= 1.00D-07
 Density matrix has no symmetry -- integrals replicated.
 Density matrix breaks symmetry, PCut= 1.00D-07
 Density matrix has no symmetry -- integrals replicated.
 SCF Done:  E(UHF) =  -1053.61386126     A.U. after   12 cycles
             Convg  =    0.8716D-08             -V/T =  2.0000
 <Sx>= 0.0000 <Sy>= 0.0000 <Sz>= 0.0000 <S**2>= 0.0000 S= 0.0000
 <L.S>= 0.000000000000E+00
 Annihilation of the first spin contaminant:
 S**2 before annihilation     0.0000,   after     0.0000
 Variable Step   Value    
 -------- ---- -----------
     1      50   10.015549
 ---------------------------------------------------------------------------------------------------
                            Z-MATRIX (ANGSTROMS AND DEGREES)
   CD    Cent   Atom    N1       Length/X        N2       Alpha/Y        N3        Beta/Z          J
 ---------------------------------------------------------------------------------------------------
      1      1  Ar
      2      2  Ar       1   5.300000(     1)
 ---------------------------------------------------------------------------------------------------
                         Z-Matrix orientation:                         
 ---------------------------------------------------------------------
 Center     Atomic      Atomic             Coordinates (Angstroms)
 Number     Number       Type             X           Y           Z
 ---------------------------------------------------------------------
      1         18           0        0.000000    0.000000    0.000000
      2         18           0        0.000000    0.000000    5.300000
 ---------------------------------------------------------------------
 Stoichiometry    Ar2
 Framework group  D*H[C*(Ar.Ar)]
 Deg. of freedom     1
 Full point group                 D*H     NOp   8
 Largest Abelian subgroup         D2H     NOp   8
 Largest concise Abelian subgroup C2      NOp   2
                         Standard orientation:                         
 ---------------------------------------------------------------------
 Center     Atomic      Atomic             Coordinates (Angstroms)
 Number     Number       Type             X           Y           Z
 ---------------------------------------------------------------------
      1         18           0        0.000000    0.000000    2.650000
      2         18           0        0.000000    0.000000   -2.650000
 ---------------------------------------------------------------------
 Rotational constants (GHZ):      0.0000000      0.9004178      0.9004178
 Standard basis: 6-311+G(d) (5D, 7F)
 There are    15 symmetry adapted basis functions of AG  symmetry.
 There are     1 symmetry adapted basis functions of B1G symmetry.
 There are     7 symmetry adapted basis functions of B2G symmetry.
 There are     7 symmetry adapted basis functions of B3G symmetry.
 There are     1 symmetry adapted basis functions of AU  symmetry.
 There are    15 symmetry adapted basis functions of B1U symmetry.
 There are     7 symmetry adapted basis functions of B2U symmetry.
 There are     7 symmetry adapted basis functions of B3U symmetry.
 Integral buffers will be    262144 words long.
 Raffenetti 2 integral format.
 Two-electron integral symmetry is turned on.
    60 basis functions,   106 primitive gaussians,    62 cartesian basis functions
    18 alpha electrons       18 beta electrons
       nuclear repulsion energy        32.3497010534 Hartrees.
 NAtoms=    2 NActive=    2 NUniq=    1 SFac= 3.00D+00 NAtFMM=   80 NAOKFM=F Big=F
 One-electron integrals computed using PRISM.
 NBasis=    60 RedAO= T  NBF=    15     1     7     7     1    15     7     7
 NBsUse=    60 1.00D-06 NBFU=    15     1     7     7     1    15     7     7
 Harris functional with IExCor=  205 diagonalized for initial guess.
 ExpMin= 6.00D-02 ExpMax= 1.18D+05 ExpMxC= 4.03D+03 IAcc=2 IRadAn=         0 AccDes= 0.00D+00
 HarFok:  IExCor=  205 AccDes= 0.00D+00 IRadAn=         0 IDoV= 1
 ScaDFX=  1.000000  1.000000  1.000000  1.000000
 FoFCou: FMM=F IPFlag=           0 FMFlag=      100000 FMFlg1=           0
         NFxFlg=           0 DoJE=T BraDBF=F KetDBF=T FulRan=T
         Omega=  0.000000  0.000000  1.000000  0.000000  0.000000 ICntrl=     500 IOpCl=  0
         NMat0=    1 NMatS0=    1 NMatT0=    0 NMatD0=    1 NMtDS0=    0 NMtDT0=    0
         I1Cent=           4 NGrid=           0.
 Petite list used in FoFCou.
 Mixing orbitals, IMix= 1 IMixAn=  0 NRI=1 NE=   18 Coef=  7.07106781D-01  7.07106781D-01
 Mixing orbitals, IMix= 1 IMixAn=  0 NRI=1 NE=   18 Coef= -7.07106781D-01  7.07106781D-01
 Initial guess orbital symmetries:
 Alpha Orbitals:
       Occupied  (SGU) (SGG) (SGU) (SGG) (SGG) (SGU) (PIG) (PIG)
                 (PIU) (PIU) (SGG) (SGU) (SGG) (PIU) (PIU) (PIG)
                 (PIG) (?A)
       Virtual   (?A) (SGU) (SGG) (PIU) (PIU) (PIG) (PIG) (SGU)
                 (PIU) (PIU) (SGU) (PIG) (PIG) (SGG) (DLTG) (DLTU)
                 (DLTG) (DLTU) (PIU) (PIU) (PIG) (PIG) (SGG) (SGU)
                 (SGG) (SGU) (PIU) (PIU) (PIG) (PIG) (SGU) (SGG)
                 (SGG) (SGU) (PIU) (PIU) (PIG) (PIG) (SGU) (SGG)
                 (SGG) (SGU)
 Beta  Orbitals:
       Occupied  (SGU) (SGG) (SGU) (SGG) (SGG) (SGU) (PIG) (PIG)
                 (PIU) (PIU) (SGG) (SGU) (SGG) (PIU) (PIU) (PIG)
                 (PIG) (?A)
       Virtual   (?A) (SGU) (SGG) (PIU) (PIU) (PIG) (PIG) (SGU)
                 (PIU) (PIU) (SGU) (PIG) (PIG) (SGG) (DLTG) (DLTU)
                 (DLTG) (DLTU) (PIU) (PIU) (PIG) (PIG) (SGG) (SGU)
                 (SGG) (SGU) (PIU) (PIU) (PIG) (PIG) (SGU) (SGG)
                 (SGG) (SGU) (PIU) (PIU) (PIG) (PIG) (SGU) (SGG)
                 (SGG) (SGU)
 Initial guess <Sx>= 0.0000 <Sy>= 0.0000 <Sz>= 0.0000 <S**2>= 1.0000 S= 0.6180
 Requested convergence on RMS density matrix=1.00D-08 within 128 cycles.
 Requested convergence on MAX density matrix=1.00D-06.
 Requested convergence on             energy=1.00D-06.
 No special actions if energy rises.
 Keep R1 and R2 ints in memory in canonical form, NReq=4666730.
 An orbital has undefined symmetry, so N**3 symmetry is turned off.
 Density matrix breaks symmetry, PCut= 1.00D-04
 Density matrix has no symmetry -- integrals replicated.
 Density matrix breaks symmetry, PCut= 1.00D-07
 Density matrix has no symmetry -- integrals replicated.
 Density matrix breaks symmetry, PCut= 1.00D-07
 Density matrix has no symmetry -- integrals replicated.
 Density matrix breaks symmetry, PCut= 1.00D-07
 Density matrix has no symmetry -- integrals replicated.
 Density matrix breaks symmetry, PCut= 1.00D-07
 Density matrix has no symmetry -- integrals replicated.
 Density matrix breaks symmetry, PCut= 1.00D-07
 Density matrix has no symmetry -- integrals replicated.
 Density matrix breaks symmetry, PCut= 1.00D-07
 Density matrix has no symmetry -- integrals replicated.
 Density matrix breaks symmetry, PCut= 1.00D-07
 Density matrix has no symmetry -- integrals replicated.
 Density matrix breaks symmetry, PCut= 1.00D-07
 Density matrix has no symmetry -- integrals replicated.
 Density matrix breaks symmetry, PCut= 1.00D-07
 Density matrix has no symmetry -- integrals replicated.
 Density matrix breaks symmetry, PCut= 1.00D-07
 Density matrix has no symmetry -- integrals replicated.
 Density matrix breaks symmetry, PCut= 1.00D-07
 Density matrix has no symmetry -- integrals replicated.
 SCF Done:  E(UHF) =  -1053.61386098     A.U. after   12 cycles
             Convg  =    0.8722D-08             -V/T =  2.0000
 <Sx>= 0.0000 <Sy>= 0.0000 <Sz>= 0.0000 <S**2>= 0.0000 S= 0.0000
 <L.S>= 0.000000000000E+00
 Annihilation of the first spin contaminant:
 S**2 before annihilation     0.0000,   after     0.0000
 Scan completed.

 Summary of the potential surface scan:
   N      B1          SCF    
 ----  ---------  -----------
    1     0.3000   -934.46639
    2     0.4000   -995.17097
    3     0.5000  -1020.48249
    4     0.6000  -1032.83248
    5     0.7000  -1039.83274
    6     0.8000  -1044.48690
    7     0.9000  -1047.60400
    8     1.0000  -1049.59184
    9     1.1000  -1050.83185
   10     1.2000  -1051.58943
   11     1.3000  -1052.06192
   12     1.4000  -1052.40193
   13     1.5000  -1052.69365
   14     1.6000  -1052.92467
   15     1.7000  -1053.10224
   16     1.8000  -1053.23715
   17     1.9000  -1053.33846
   18     2.0000  -1053.41374
   19     2.1000  -1053.46918
   20     2.2000  -1053.50972
   21     2.3000  -1053.53919
   22     2.4000  -1053.56050
   23     2.5000  -1053.57586
   24     2.6000  -1053.58689
   25     2.7000  -1053.59477
   26     2.8000  -1053.60040
   27     2.9000  -1053.60440
   28     3.0000  -1053.60724
   29     3.1000  -1053.60924
   30     3.2000  -1053.61065
   31     3.3000  -1053.61163
   32     3.4000  -1053.61232
   33     3.5000  -1053.61280
   34     3.6000  -1053.61313
   35     3.7000  -1053.61336
   36     3.8000  -1053.61352
   37     3.9000  -1053.61363
   38     4.0000  -1053.61370
   39     4.1000  -1053.61375
   40     4.2000  -1053.61379
   41     4.3000  -1053.61381
   42     4.4000  -1053.61383
   43     4.5000  -1053.61384
   44     4.6000  -1053.61385
   45     4.7000  -1053.61385
   46     4.8000  -1053.61386
   47     4.9000  -1053.61386
   48     5.0000  -1053.61386
   49     5.1000  -1053.61386
   50     5.2000  -1053.61386
   51     5.3000  -1053.61386
 ----  ---------  -----------
  
 1|1|UNPC-PUB-7-042|Scan|UHF|6-311+G(d)|Ar2|CCLAB|10-May-2023|1||# scan
  uhf/6-311+g(d) guess=(mix,always) geom=nocrowd||Title Card Required||
 0,1|Ar|Ar,1,B1||B1=0.3,s,50,0.1||Version=IA32W-G09RevA.02|HF=-934.4663
 89,-995.170969,-1020.482486,-1032.832477,-1039.8327386,-1044.4869027,-
 1047.603998,-1049.5918362,-1050.8318463,-1051.5894263,-1052.0619238,-1
 052.4019349,-1052.6936514,-1052.9246658,-1053.1022367,-1053.2371533,-1
 053.3384612,-1053.413736,-1053.4691768,-1053.5097169,-1053.539187,-105
 3.5605048,-1053.5758615,-1053.586885,-1053.5947734,-1053.6004012,-1053
 .6044033,-1053.6072389,-1053.60924,-1053.6106464,-1053.6116311,-1053.6
 123182,-1053.6127962,-1053.6131281,-1053.6133579,-1053.6135166,-1053.6
 136261,-1053.6137014,-1053.6137532,-1053.6137889,-1053.6138134,-1053.6
 138302,-1053.6138417,-1053.6138495,-1053.6138546,-1053.6138579,-1053.6
 138598,-1053.6138608,-1053.6138613,-1053.6138613,-1053.613861|S2=1.448
 522,1.37187,1.,1.,1.001668,1.001749,0.992931,0.889314,0.720089,0.,0.68
 6043,0.743204,0.,0.,0.,0.,0.,0.,0.,0.,0.,0.,0.,0.,0.,0.,0.,0.,0.,0.,0.
 ,0.,0.,0.,0.,0.,0.,0.,0.,0.,0.,0.,0.,0.,0.,0.,0.,0.,0.,0.,0.|S2-1=0.,0
 .,0.,0.,0.,0.,0.,0.,0.,0.,0.,0.,0.,0.,0.,0.,0.,0.,0.,0.,0.,0.,0.,0.,0.
 ,0.,0.,0.,0.,0.,0.,0.,0.,0.,0.,0.,0.,0.,0.,0.,0.,0.,0.,0.,0.,0.,0.,0.,
 0.,0.,0.|S2A=2.499955,2.197502,0.,0.,0.013348,0.013996,0.029825,0.0170
 16,0.00678,0.,0.010236,0.012629,0.,0.,0.,0.,0.,0.,0.,0.,0.,0.,0.,0.,0.
 ,0.,0.,0.,0.,0.,0.,0.,0.,0.,0.,0.,0.,0.,0.,0.,0.,0.,0.,0.,0.,0.,0.,0.,
 0.,0.,0.|RMSD=1.536e-009,4.255e-009,8.594e-009,2.092e-009,9.100e-009,5
 .824e-010,3.313e-009,6.247e-009,3.050e-009,3.452e-009,4.508e-009,1.890
 e-009,4.175e-009,1.208e-009,7.324e-009,6.482e-009,2.964e-009,5.795e-00
 9,3.845e-009,2.699e-009,2.587e-009,2.416e-009,2.198e-009,1.999e-009,9.
 410e-009,7.869e-009,4.036e-009,2.841e-009,3.141e-009,4.846e-009,5.440e
 -009,3.432e-009,6.394e-009,7.323e-009,7.559e-009,7.665e-009,7.743e-009
 ,7.818e-009,7.895e-009,7.974e-009,8.072e-009,8.181e-009,8.284e-009,8.3
 81e-009,8.468e-009,8.544e-009,8.609e-009,8.660e-009,8.695e-009,8.716e-
 009,8.722e-009|PG=D*H [C*(Ar1.Ar1)]||@


 THE SECRET OF SUCCESS IN LIFE IS TO EAT WHAT YOU LIKE, AND LET THE FOOD
 FIGHT IT OUT INSIDE YOU. -- FROM A FORTUNE COOKIE
 Job cpu time:  0 days  0 hours  0 minutes 22.0 seconds.
 File lengths (MBytes):  RWF=      5 Int=      0 D2E=      0 Chk=      2 Scr=      1
 Normal termination of Gaussian 09 at Wed May 10 13:47:30 2023.
